 Entering Gaussian System
 *********************************************
 Gaussian 98:
 frequency output generated by the xtb code
 *********************************************
                         Standard orientation:
 --------------------------------------------------------------------
  Center     Atomic     Atomic              Coordinates (Angstroms)
  Number     Number      Type              X           Y           Z
 --------------------------------------------------------------------
    1          8             0        0.772069    2.264268    0.617665
    2          8             0        1.857915   -1.098371    0.297260
    3          8             0        2.263193    0.715918   -0.964836
    4          6             0        0.651332    0.880066    0.797102
    5          6             0       -0.703253    0.326181    0.376791
    6          6             0       -1.106277   -0.922748    0.832901
    7          6             0       -1.527205    1.045164   -0.475498
    8          6             0        1.689114    0.155950   -0.052329
    9          6             0       -2.323370   -1.445646    0.435094
   10          6             0       -2.747803    0.520914   -0.866878
   11          6             0       -3.146133   -0.725510   -0.416366
   12          6             0        2.758361   -1.906725   -0.474658
   13          1             0        0.826411    0.649625    1.854680
   14          1             0       -0.462387   -1.482336    1.494289
   15          1             0       -1.217529    2.021540   -0.814334
   16          1             0       -2.631545   -2.416043    0.792732
   17          1             0       -3.384821    1.089241   -1.527215
   18          1             0       -4.095647   -1.134689   -0.725342
   19          1             0        1.305698    2.418345   -0.181820
   20          1             0        3.543704   -1.284573   -0.904081
   21          1             0        3.168385   -2.639994    0.213585
   22          1             0        2.199556   -2.397086   -1.271108
 --------------------------------------------------------------------
     1 basis functions        1 primitive gaussians
     1 alpha electrons        1 beta electrons

 Harmonic frequencies (cm**-1), IR intensities (km*mol⁻¹),
 Raman scattering activities (A**4/amu), Raman depolarization ratios,
 reduced masses (AMU), force constants (mDyne/A) and normal coordinates:
                      1                      2                      3
                        a                      a                      a 
 Frequencies --    30.3757                38.7694                55.1790
 Red. masses --    10.7171                 1.4229                14.7319
 Frc consts  --     0.0000                 0.0000                 0.0000
 IR Inten    --     0.7805                 0.5408                 0.8615
 Raman Activ --     0.0000                 0.0000                 0.0000
 Depolar     --     0.0000                 0.0000                 0.0000
 Atom AN      X      Y      Z        X      Y      Z        X      Y      Z
   1   8    -0.03   0.01   0.16    -0.01  -0.00   0.06    -0.09   0.01  -0.29
   2   8    -0.16  -0.02  -0.22    -0.03   0.02  -0.06    -0.21  -0.08  -0.21
   3   8     0.11   0.18   0.16     0.03   0.09   0.03     0.62   0.17   0.43
   4   6     0.01  -0.00   0.07     0.01  -0.01   0.01    -0.03   0.02  -0.14
   5   6     0.02  -0.01   0.06     0.01  -0.00  -0.00    -0.03  -0.02  -0.09
   6   6    -0.11   0.13   0.32     0.00  -0.00  -0.01     0.03  -0.04  -0.09
   7   6     0.18  -0.18  -0.24     0.01  -0.00  -0.00    -0.13   0.00   0.03
   8   6    -0.00   0.05   0.01     0.01   0.02  -0.01     0.12   0.02   0.03
   9   6    -0.09   0.10   0.28     0.00  -0.00  -0.02    -0.01  -0.04   0.02
  10   6     0.21  -0.21  -0.28     0.02   0.00  -0.02    -0.17   0.01   0.15
  11   6     0.07  -0.07  -0.01     0.01   0.00  -0.02    -0.11  -0.01   0.15
  12   6    -0.19   0.02  -0.28    -0.05  -0.09   0.02    -0.01  -0.05  -0.00
  13   1     0.01  -0.02   0.02     0.00  -0.01   0.00    -0.02   0.03  -0.03
  14   1    -0.07   0.07   0.16    -0.00  -0.00  -0.00     0.03  -0.02  -0.05
  15   1     0.08  -0.08  -0.13     0.01  -0.00   0.00    -0.05   0.01   0.01
  16   1    -0.06   0.06   0.14    -0.00  -0.00  -0.01     0.01  -0.02   0.01
  17   1     0.10  -0.10  -0.15     0.01   0.00  -0.01    -0.07   0.01   0.07
  18   1     0.03  -0.03  -0.01     0.00   0.00  -0.01    -0.04  -0.00   0.07
  19   1     0.04   0.02   0.07     0.00   0.01   0.02     0.09  -0.01  -0.00
  20   1    -0.04   0.00  -0.06    -0.32   0.04  -0.46     0.01  -0.01   0.04
  21   1    -0.07  -0.03  -0.11     0.41   0.33   0.13    -0.03  -0.00   0.02
  22   1    -0.06   0.05  -0.10    -0.14  -0.46   0.37     0.04  -0.03  -0.02
                      4                      5                      6
                        a                      a                      a 
 Frequencies --    70.2907               162.6014               184.3971
 Red. masses --    10.4436                11.1262                12.1503
 Frc consts  --     0.0000                 0.0000                 0.0000
 IR Inten    --     0.9920                 6.7156                 1.6030
 Raman Activ --     0.0000                 0.0000                 0.0000
 Depolar     --     0.0000                 0.0000                 0.0000
 Atom AN      X      Y      Z        X      Y      Z        X      Y      Z
   1   8    -0.06  -0.18   0.09     0.19  -0.02  -0.09     0.13   0.07   0.56
   2   8     0.25  -0.03  -0.08    -0.33  -0.18  -0.33    -0.26   0.06  -0.18
   3   8     0.03   0.05  -0.03    -0.05  -0.04  -0.01     0.09   0.02  -0.20
   4   6    -0.03  -0.18  -0.06    -0.01   0.00   0.01     0.02  -0.00  -0.09
   5   6    -0.05  -0.11  -0.09    -0.11   0.14   0.24     0.03   0.07  -0.20
   6   6    -0.21  -0.02   0.03    -0.10   0.13   0.23     0.13   0.06  -0.14
   7   6     0.04  -0.08  -0.14    -0.11   0.13   0.23    -0.06  -0.02  -0.19
   8   6     0.05  -0.05  -0.07    -0.16  -0.10  -0.12    -0.03   0.07  -0.21
   9   6    -0.32   0.14   0.15     0.05  -0.01  -0.02     0.11  -0.02   0.04
  10   6    -0.06   0.07  -0.04     0.03  -0.01  -0.02    -0.10  -0.09   0.01
  11   6    -0.25   0.19   0.13     0.16  -0.12  -0.22    -0.04  -0.06   0.15
  12   6     0.51   0.16   0.06     0.30   0.10   0.13    -0.02  -0.13   0.30
  13   1    -0.01  -0.08  -0.02     0.05   0.00  -0.00    -0.00  -0.11  -0.05
  14   1    -0.07  -0.02   0.01    -0.04   0.05   0.09     0.06   0.03  -0.05
  15   1     0.05  -0.05  -0.07    -0.04   0.05   0.09    -0.04  -0.01  -0.09
  16   1    -0.13   0.07   0.08     0.03  -0.02  -0.03     0.06  -0.00   0.04
  17   1     0.00   0.03  -0.02     0.02  -0.02  -0.03    -0.06  -0.04   0.02
  18   1    -0.10   0.09   0.07     0.09  -0.08  -0.14    -0.03  -0.02   0.10
  19   1    -0.01  -0.02   0.03     0.08  -0.04  -0.01    -0.02   0.12   0.13
  20   1     0.11   0.10   0.03     0.06   0.10   0.11     0.06  -0.08   0.14
  21   1     0.18   0.09   0.04     0.09   0.10   0.10    -0.10  -0.01   0.17
  22   1     0.21  -0.01   0.01     0.23  -0.06  -0.01     0.08  -0.07   0.05
                      7                      8                      9
                        a                      a                      a 
 Frequencies --   222.0133               245.5008               315.5999
 Red. masses --    11.9244                11.5423                13.1190
 Frc consts  --     0.0000                 0.0000                 0.0000
 IR Inten    --    11.0463                 4.9485                55.0847
 Raman Activ --     0.0000                 0.0000                 0.0000
 Depolar     --     0.0000                 0.0000                 0.0000
 Atom AN      X      Y      Z        X      Y      Z        X      Y      Z
   1   8     0.47  -0.01   0.11    -0.01  -0.03   0.14     0.47  -0.12  -0.20
   2   8     0.16  -0.13   0.17     0.39   0.17   0.06     0.08   0.14  -0.08
   3   8    -0.03  -0.14   0.20     0.29   0.08  -0.15    -0.30   0.54   0.10
   4   6    -0.07   0.03   0.01     0.03  -0.07  -0.14    -0.01  -0.03   0.08
   5   6    -0.12   0.23  -0.17    -0.12   0.05   0.08    -0.02  -0.05   0.05
   6   6     0.00   0.22  -0.08    -0.23   0.13   0.20    -0.05  -0.09  -0.05
   7   6    -0.26   0.08  -0.17    -0.23   0.08   0.20     0.01  -0.10  -0.02
   8   6    -0.02  -0.12   0.18     0.20   0.07  -0.16    -0.04   0.08  -0.01
   9   6     0.07   0.01   0.04    -0.13   0.01   0.02    -0.07  -0.06  -0.05
  10   6    -0.23  -0.13  -0.05    -0.13  -0.03  -0.00    -0.02  -0.05  -0.01
  11   6    -0.07  -0.16   0.03    -0.00  -0.16  -0.25    -0.11  -0.01   0.03
  12   6     0.06   0.14  -0.23    -0.06  -0.25   0.01    -0.04  -0.20   0.14
  13   1    -0.10  -0.00   0.01     0.05  -0.06  -0.05    -0.01   0.00   0.03
  14   1     0.03   0.10  -0.02    -0.09   0.05   0.09    -0.02  -0.04  -0.03
  15   1    -0.12   0.03  -0.08    -0.10   0.04   0.09     0.02  -0.04  -0.02
  16   1     0.07  -0.00   0.04    -0.03   0.00   0.01    -0.02  -0.02  -0.02
  17   1    -0.10  -0.07  -0.01    -0.03  -0.01  -0.01     0.01  -0.01  -0.01
  18   1    -0.01  -0.08   0.03     0.05  -0.10  -0.16    -0.04   0.02   0.02
  19   1     0.06  -0.04  -0.02    -0.06   0.05   0.01     0.26  -0.14   0.01
  20   1    -0.05   0.10  -0.10     0.05  -0.18  -0.04     0.06  -0.15   0.05
  21   1     0.11   0.02  -0.14    -0.09  -0.11   0.01    -0.11  -0.06   0.10
  22   1    -0.03   0.06  -0.05    -0.10  -0.02   0.03    -0.02  -0.05   0.04
                     10                     11                     12
                        a                      a                      a 
 Frequencies --   343.4777               354.5098               370.9944
 Red. masses --     3.3365                11.7352                 8.7384
 Frc consts  --     0.0000                 0.0000                 0.0000
 IR Inten    --   147.5079                 6.6839                 3.7692
 Raman Activ --     0.0000                 0.0000                 0.0000
 Depolar     --     0.0000                 0.0000                 0.0000
 Atom AN      X      Y      Z        X      Y      Z        X      Y      Z
   1   8    -0.29  -0.03  -0.05     0.36   0.09   0.02     0.02  -0.00   0.00
   2   8     0.10  -0.01   0.07    -0.18   0.21   0.17     0.00   0.00  -0.01
   3   8    -0.05  -0.06  -0.04     0.25  -0.22  -0.17     0.01   0.01   0.00
   4   6    -0.03  -0.05  -0.04     0.10   0.07  -0.06    -0.00  -0.00   0.00
   5   6    -0.03   0.06  -0.05     0.03  -0.16   0.12    -0.00  -0.00   0.01
   6   6     0.02   0.09   0.06    -0.14  -0.19   0.01    -0.19   0.17   0.34
   7   6    -0.00   0.06  -0.06     0.04  -0.20   0.09     0.19  -0.19  -0.33
   8   6    -0.07  -0.06  -0.05     0.01   0.12  -0.09     0.01   0.01   0.01
   9   6     0.10  -0.00  -0.01    -0.19  -0.09  -0.09     0.17  -0.18  -0.33
  10   6    -0.03   0.05   0.05    -0.01  -0.06   0.03    -0.18   0.18   0.33
  11   6     0.07  -0.01   0.01    -0.17  -0.03  -0.06    -0.01   0.01  -0.01
  12   6     0.02  -0.02  -0.02    -0.16   0.38   0.03     0.00  -0.00  -0.00
  13   1    -0.01  -0.07  -0.02     0.07  -0.01  -0.03    -0.00   0.01   0.00
  14   1     0.01   0.05   0.03    -0.08  -0.10  -0.00    -0.12   0.11   0.21
  15   1     0.02   0.00  -0.03     0.03  -0.06   0.02     0.12  -0.12  -0.21
  16   1     0.04  -0.01  -0.02    -0.07  -0.03  -0.04     0.11  -0.11  -0.21
  17   1    -0.03   0.01   0.03     0.03   0.02   0.00    -0.11   0.11   0.21
  18   1     0.03  -0.02  -0.00    -0.06   0.02  -0.03    -0.00   0.00  -0.00
  19   1     0.73   0.02   0.53     0.23   0.02   0.10    -0.11  -0.00  -0.08
  20   1     0.00  -0.01  -0.02    -0.09   0.16  -0.00     0.00  -0.00  -0.00
  21   1     0.01  -0.01  -0.02     0.02   0.11  -0.03     0.00  -0.00   0.00
  22   1    -0.02   0.01   0.00    -0.05   0.11   0.01     0.00  -0.00  -0.00
                     13                     14                     15
                        a                      a                      a 
 Frequencies --   443.5197               478.4746               573.1517
 Red. masses --    11.1249                11.0497                11.8592
 Frc consts  --     0.0000                 0.0000                 0.0000
 IR Inten    --     4.7255                12.5826                16.7938
 Raman Activ --     0.0000                 0.0000                 0.0000
 Depolar     --     0.0000                 0.0000                 0.0000
 Atom AN      X      Y      Z        X      Y      Z        X      Y      Z
   1   8    -0.07   0.38   0.04     0.00  -0.34  -0.02     0.17   0.32   0.10
   2   8     0.14  -0.11  -0.14     0.05   0.15   0.13     0.13  -0.03   0.03
   3   8     0.04  -0.14  -0.02     0.18   0.03   0.01     0.02  -0.02   0.13
   4   6     0.06   0.25   0.14    -0.16  -0.23  -0.10    -0.31   0.17  -0.26
   5   6    -0.10   0.20   0.40    -0.32   0.18   0.29    -0.18  -0.25  -0.02
   6   6    -0.05  -0.01  -0.07     0.06  -0.00   0.05     0.15  -0.32   0.21
   7   6    -0.02  -0.13   0.01    -0.01   0.14  -0.05    -0.05  -0.12  -0.01
   8   6     0.04  -0.02   0.04    -0.15  -0.04  -0.23    -0.26  -0.07  -0.10
   9   6    -0.02  -0.06  -0.22     0.18  -0.11  -0.09     0.06   0.01   0.08
  10   6     0.02  -0.15  -0.14     0.12  -0.00  -0.19    -0.11   0.22  -0.13
  11   6    -0.29   0.06   0.15     0.06   0.18   0.28     0.23   0.16  -0.02
  12   6     0.16  -0.22  -0.09    -0.10   0.13   0.04     0.08  -0.11  -0.06
  13   1     0.07   0.11   0.04     0.06  -0.12  -0.06    -0.09   0.04  -0.07
  14   1    -0.00  -0.07  -0.09     0.09  -0.01  -0.07     0.04  -0.07   0.07
  15   1     0.01  -0.07  -0.08     0.06  -0.00  -0.08     0.08  -0.04   0.08
  16   1     0.06  -0.07  -0.14     0.09  -0.08  -0.13    -0.09   0.03  -0.01
  17   1     0.08  -0.06  -0.13     0.06  -0.09  -0.15    -0.05   0.06  -0.01
  18   1    -0.11   0.04   0.09    -0.00   0.06   0.11     0.07   0.01   0.02
  19   1     0.05   0.10   0.06    -0.08  -0.09  -0.06     0.01   0.10   0.01
  20   1     0.06  -0.09  -0.03    -0.03   0.03  -0.01     0.03  -0.05  -0.03
  21   1     0.02  -0.05   0.00    -0.02   0.02  -0.02     0.01  -0.04  -0.02
  22   1     0.04  -0.07  -0.02    -0.06   0.06   0.02    -0.01  -0.02  -0.00
                     16                     17                     18
                        a                      a                      a 
 Frequencies --   589.8660               651.9568               665.1231
 Red. masses --    11.3714                10.9598                11.3461
 Frc consts  --     0.0000                 0.0000                 0.0000
 IR Inten    --     3.5136                15.6500                 9.0400
 Raman Activ --     0.0000                 0.0000                 0.0000
 Depolar     --     0.0000                 0.0000                 0.0000
 Atom AN      X      Y      Z        X      Y      Z        X      Y      Z
   1   8    -0.06  -0.18  -0.02     0.05  -0.02  -0.01     0.02  -0.10  -0.04
   2   8    -0.06   0.00   0.01    -0.07   0.07  -0.17     0.01   0.19  -0.23
   3   8    -0.02   0.03  -0.04    -0.04  -0.13  -0.15     0.08  -0.24  -0.15
   4   6     0.13  -0.08   0.09    -0.09   0.00   0.08    -0.14  -0.01   0.29
   5   6     0.11  -0.05   0.10    -0.02  -0.20  -0.27    -0.26   0.09   0.20
   6   6     0.31   0.01   0.18    -0.13  -0.01   0.27     0.09  -0.17  -0.13
   7   6    -0.23  -0.35   0.09    -0.17   0.18   0.13     0.02  -0.02  -0.25
   8   6     0.11   0.01   0.04     0.32   0.19   0.29     0.18   0.22   0.22
   9   6     0.24   0.44  -0.13     0.12  -0.24  -0.16    -0.10   0.02   0.25
  10   6    -0.34   0.06  -0.25     0.06  -0.02  -0.30    -0.18   0.19   0.10
  11   6    -0.14   0.10  -0.10     0.03   0.17   0.25     0.22  -0.04  -0.12
  12   6    -0.04   0.05   0.03     0.01  -0.00  -0.01     0.02  -0.00  -0.02
  13   1     0.05  -0.03   0.02    -0.16   0.03   0.05    -0.08   0.03   0.10
  14   1     0.04  -0.05   0.05    -0.04   0.06   0.13     0.09  -0.06  -0.11
  15   1    -0.04  -0.10   0.03    -0.04   0.08   0.13     0.07  -0.04  -0.13
  16   1     0.06   0.12  -0.05    -0.02  -0.05  -0.06    -0.04  -0.01   0.01
  17   1    -0.04   0.07  -0.08    -0.02  -0.03  -0.07    -0.06  -0.00  -0.01
  18   1    -0.01  -0.10   0.06    -0.03   0.08   0.13     0.10  -0.06  -0.10
  19   1    -0.00  -0.05   0.00     0.06  -0.05   0.02     0.05  -0.13  -0.01
  20   1    -0.02   0.03   0.01     0.02  -0.02  -0.00     0.05  -0.07  -0.02
  21   1    -0.00   0.01   0.00    -0.03   0.02   0.04    -0.06   0.03   0.07
  22   1     0.00   0.01   0.00     0.02  -0.03  -0.00     0.01  -0.04   0.01
                     19                     20                     21
                        a                      a                      a 
 Frequencies --   717.2204               764.8548               831.0200
 Red. masses --     7.8343                 7.6789                10.7520
 Frc consts  --     0.0000                 0.0000                 0.0000
 IR Inten    --    32.0173                12.7628                 6.7684
 Raman Activ --     0.0000                 0.0000                 0.0000
 Depolar     --     0.0000                 0.0000                 0.0000
 Atom AN      X      Y      Z        X      Y      Z        X      Y      Z
   1   8    -0.00   0.08   0.04     0.02  -0.05  -0.00     0.05  -0.08   0.05
   2   8    -0.15  -0.25   0.14     0.10   0.22  -0.15    -0.05   0.02  -0.06
   3   8    -0.16   0.22  -0.08     0.05  -0.20   0.12    -0.10  -0.05  -0.03
   4   6     0.16  -0.04  -0.30    -0.16   0.02   0.07    -0.41  -0.04  -0.44
   5   6    -0.08  -0.02   0.01     0.20  -0.13  -0.25    -0.12   0.07   0.15
   6   6    -0.05  -0.05   0.08    -0.03   0.14   0.11     0.10   0.06  -0.02
   7   6    -0.06   0.06   0.02     0.01   0.01   0.19     0.16  -0.08   0.09
   8   6     0.37  -0.04   0.13    -0.30   0.06  -0.00     0.23   0.11   0.25
   9   6    -0.08  -0.04   0.13     0.01   0.17   0.01     0.09   0.25  -0.11
  10   6    -0.09   0.11   0.05     0.06  -0.05   0.15     0.24  -0.16   0.21
  11   6     0.05   0.06   0.07    -0.18   0.03   0.09    -0.16  -0.10  -0.12
  12   6    -0.04   0.01   0.04     0.03  -0.00  -0.04     0.02  -0.01  -0.02
  13   1    -0.01   0.00  -0.07    -0.11  -0.00   0.02    -0.21  -0.03  -0.10
  14   1     0.12  -0.13  -0.21     0.09  -0.09  -0.17    -0.01   0.01   0.02
  15   1     0.13  -0.11  -0.22     0.09  -0.10  -0.16     0.03  -0.02   0.04
  16   1     0.08  -0.14  -0.22     0.18  -0.09  -0.22     0.05   0.10   0.07
  17   1     0.09  -0.12  -0.23     0.19  -0.11  -0.21     0.11   0.05   0.10
  18   1     0.16  -0.12  -0.24     0.13  -0.16  -0.29    -0.11   0.05   0.07
  19   1     0.00   0.13   0.03    -0.01  -0.06  -0.02     0.02   0.04   0.03
  20   1    -0.07   0.10   0.04     0.07  -0.10  -0.04     0.01  -0.02  -0.01
  21   1     0.07  -0.02  -0.07    -0.08   0.03   0.07    -0.01   0.00   0.01
  22   1     0.02   0.03  -0.03    -0.02  -0.03   0.03     0.00  -0.01  -0.00
                     22                     23                     24
                        a                      a                      a 
 Frequencies --   875.8999               899.8016               917.2598
 Red. masses --     3.3298                 4.2362                10.2518
 Frc consts  --     0.0000                 0.0000                 0.0000
 IR Inten    --     0.1624                 1.8478                22.2412
 Raman Activ --     0.0000                 0.0000                 0.0000
 Depolar     --     0.0000                 0.0000                 0.0000
 Atom AN      X      Y      Z        X      Y      Z        X      Y      Z
   1   8    -0.00  -0.00  -0.00    -0.01  -0.01  -0.00    -0.02  -0.06   0.01
   2   8     0.01   0.01  -0.02     0.04   0.06  -0.08     0.14   0.16  -0.27
   3   8    -0.01  -0.01   0.01    -0.05  -0.07   0.10    -0.21  -0.20   0.29
   4   6     0.01  -0.00  -0.00     0.14  -0.02  -0.07     0.35  -0.08  -0.37
   5   6     0.01   0.00  -0.00     0.05  -0.01  -0.03     0.01   0.07   0.10
   6   6     0.10  -0.10  -0.19    -0.12   0.10   0.18     0.00  -0.03  -0.10
   7   6    -0.11   0.10   0.20    -0.12   0.09   0.19     0.00  -0.06  -0.06
   8   6    -0.01  -0.01   0.01    -0.07   0.00   0.06    -0.08  -0.02   0.25
   9   6     0.09  -0.10  -0.17    -0.00  -0.05  -0.01    -0.05  -0.08   0.05
  10   6    -0.09   0.09   0.16     0.00  -0.01  -0.08    -0.05   0.04  -0.09
  11   6     0.01   0.00  -0.00     0.16  -0.12  -0.23     0.03   0.06   0.08
  12   6    -0.00   0.01   0.00    -0.02   0.04   0.00    -0.09   0.18   0.03
  13   1     0.01  -0.00  -0.00     0.04  -0.01  -0.02     0.18  -0.05  -0.11
  14   1    -0.20   0.19   0.36     0.20  -0.19  -0.37    -0.09   0.07   0.13
  15   1     0.20  -0.20  -0.39     0.18  -0.19  -0.37    -0.07   0.05   0.11
  16   1    -0.19   0.18   0.34    -0.06   0.04   0.09     0.01  -0.05  -0.05
  17   1     0.18  -0.17  -0.32    -0.09   0.08   0.14    -0.04   0.01   0.00
  18   1    -0.00   0.01   0.01    -0.21   0.21   0.38     0.06  -0.04  -0.08
  19   1    -0.01   0.01  -0.00    -0.02   0.06   0.00    -0.03   0.21   0.03
  20   1     0.01  -0.01  -0.00     0.03  -0.04  -0.01     0.09  -0.13  -0.04
  21   1    -0.01   0.01   0.01    -0.05   0.03   0.05    -0.18   0.10   0.16
  22   1    -0.00  -0.00   0.00    -0.01  -0.01   0.02    -0.04  -0.04   0.07
                     25                     26                     27
                        a                      a                      a 
 Frequencies --   926.7976               929.7293               979.7820
 Red. masses --     4.1918                 3.0345                11.8242
 Frc consts  --     0.0000                 0.0000                 0.0000
 IR Inten    --     0.5846                 0.0356                19.8854
 Raman Activ --     0.0000                 0.0000                 0.0000
 Depolar     --     0.0000                 0.0000                 0.0000
 Atom AN      X      Y      Z        X      Y      Z        X      Y      Z
   1   8    -0.00  -0.01  -0.00    -0.00   0.00  -0.00     0.00  -0.18   0.01
   2   8     0.01   0.01  -0.02     0.01   0.00  -0.01    -0.24   0.17   0.21
   3   8    -0.02  -0.02   0.03    -0.00  -0.00   0.01     0.00  -0.02  -0.01
   4   6     0.04  -0.01  -0.03     0.01   0.00   0.01    -0.04   0.09  -0.13
   5   6    -0.00   0.01   0.01     0.04  -0.03  -0.06     0.15   0.07   0.06
   6   6    -0.11   0.11   0.20     0.01  -0.01  -0.03    -0.19   0.26  -0.26
   7   6     0.11  -0.10  -0.20     0.02  -0.02  -0.04    -0.06  -0.39   0.17
   8   6    -0.01   0.01   0.02    -0.01  -0.01  -0.01    -0.08   0.20   0.07
   9   6     0.13  -0.13  -0.23    -0.09   0.08   0.16    -0.03  -0.15   0.07
  10   6    -0.13   0.12   0.20    -0.11   0.10   0.18    -0.06   0.10  -0.09
  11   6    -0.00   0.00   0.01     0.13  -0.12  -0.22     0.26   0.12   0.09
  12   6    -0.00   0.01   0.00    -0.00   0.01   0.00     0.24  -0.25  -0.19
  13   1     0.01  -0.01  -0.01    -0.00  -0.00   0.00     0.01  -0.05  -0.05
  14   1     0.18  -0.17  -0.32    -0.08   0.07   0.14    -0.04   0.10  -0.06
  15   1    -0.16   0.16   0.31    -0.08   0.08   0.17     0.00  -0.10   0.07
  16   1    -0.21   0.20   0.37     0.19  -0.19  -0.35     0.05  -0.04   0.04
  17   1     0.18  -0.18  -0.33     0.21  -0.21  -0.39     0.03   0.07  -0.02
  18   1     0.01  -0.01  -0.01    -0.24   0.24   0.44     0.07   0.04   0.02
  19   1     0.00   0.02   0.01     0.00  -0.00   0.00    -0.00   0.00   0.01
  20   1     0.01  -0.01  -0.00     0.00  -0.00  -0.00     0.02   0.00  -0.02
  21   1    -0.01   0.01   0.01    -0.00   0.00   0.00     0.08  -0.06  -0.06
  22   1    -0.00  -0.00   0.00    -0.00  -0.00   0.00     0.03  -0.02  -0.05
                     28                     29                     30
                        a                      a                      a 
 Frequencies --   988.3611              1081.1893              1096.3385
 Red. masses --    11.5315                 7.1952                 8.4098
 Frc consts  --     0.0000                 0.0000                 0.0000
 IR Inten    --    18.0257                 8.3078               153.8441
 Raman Activ --     0.0000                 0.0000                 0.0000
 Depolar     --     0.0000                 0.0000                 0.0000
 Atom AN      X      Y      Z        X      Y      Z        X      Y      Z
   1   8    -0.00   0.12   0.01    -0.01  -0.12   0.02     0.02   0.45  -0.07
   2   8     0.27  -0.22  -0.23     0.03  -0.03  -0.01    -0.17   0.08  -0.01
   3   8     0.02   0.05  -0.05     0.01   0.01  -0.01    -0.04  -0.02   0.03
   4   6    -0.23  -0.03   0.07    -0.01   0.11  -0.03    -0.06  -0.45   0.08
   5   6     0.08   0.04   0.02     0.03   0.03   0.01    -0.07  -0.10  -0.01
   6   6    -0.16   0.22  -0.20     0.16   0.03   0.07    -0.08   0.08  -0.09
   7   6    -0.04  -0.33   0.16     0.13   0.07   0.04     0.07   0.04   0.03
   8   6     0.15  -0.26  -0.10    -0.01   0.00  -0.01     0.08  -0.04   0.03
   9   6     0.00  -0.07   0.04    -0.00  -0.34   0.18     0.07   0.05   0.01
  10   6    -0.01   0.06  -0.04    -0.12   0.26  -0.21    -0.05   0.07  -0.06
  11   6     0.20   0.09   0.06    -0.39  -0.16  -0.14    -0.04  -0.08   0.02
  12   6    -0.28   0.28   0.23    -0.03   0.00   0.02     0.20   0.04   0.04
  13   1    -0.21   0.06   0.05    -0.05   0.09   0.01     0.17  -0.29  -0.05
  14   1    -0.01   0.08  -0.08     0.23   0.22   0.02    -0.04   0.00  -0.03
  15   1     0.02  -0.10   0.06     0.27  -0.00   0.13     0.20  -0.01   0.10
  16   1     0.04  -0.02   0.04     0.23  -0.12   0.20     0.19  -0.00   0.10
  17   1     0.05   0.07  -0.01     0.16   0.29  -0.07     0.00   0.04  -0.02
  18   1     0.06   0.03   0.01    -0.12  -0.03  -0.05     0.01  -0.14   0.09
  19   1     0.01  -0.06  -0.01    -0.01   0.02   0.01     0.00  -0.11  -0.06
  20   1    -0.04   0.02   0.03    -0.01   0.02   0.01     0.06  -0.13  -0.16
  21   1    -0.07   0.06   0.05     0.01   0.00  -0.00    -0.02  -0.11  -0.09
  22   1    -0.04   0.04   0.05     0.01  -0.00  -0.01    -0.24   0.14   0.13
                     31                     32                     33
                        a                      a                      a 
 Frequencies --  1102.3984              1123.4664              1125.8004
 Red. masses --     4.7549                 4.7889                 6.0516
 Frc consts  --     0.0000                 0.0000                 0.0000
 IR Inten    --    14.5562                59.6800                64.4574
 Raman Activ --     0.0000                 0.0000                 0.0000
 Depolar     --     0.0000                 0.0000                 0.0000
 Atom AN      X      Y      Z        X      Y      Z        X      Y      Z
   1   8     0.02   0.21  -0.04    -0.01   0.21  -0.03     0.01   0.02  -0.03
   2   8     0.13   0.05   0.13    -0.07   0.04   0.07     0.20  -0.04  -0.27
   3   8    -0.00  -0.01   0.01    -0.02   0.00   0.01    -0.03  -0.09   0.05
   4   6    -0.02  -0.23   0.03    -0.02  -0.20   0.05    -0.06   0.01  -0.01
   5   6    -0.07  -0.06  -0.00    -0.02   0.10  -0.07    -0.00  -0.02  -0.04
   6   6    -0.06   0.05  -0.06     0.20  -0.02   0.12     0.02   0.02   0.00
   7   6     0.03   0.01   0.02    -0.15  -0.17   0.00    -0.03  -0.03   0.00
   8   6    -0.01   0.08   0.03     0.06  -0.06  -0.00    -0.12   0.29   0.12
   9   6     0.04   0.05  -0.00    -0.05  -0.15   0.06    -0.01  -0.01   0.01
  10   6    -0.02   0.03  -0.02     0.11  -0.06   0.09     0.02  -0.01   0.02
  11   6    -0.00  -0.04   0.02    -0.05   0.14  -0.10     0.00   0.02  -0.01
  12   6    -0.27  -0.12  -0.22     0.03   0.02  -0.10    -0.15  -0.18   0.32
  13   1     0.08  -0.17  -0.03     0.08  -0.19  -0.03     0.29  -0.20  -0.09
  14   1    -0.04  -0.00  -0.01     0.29   0.25   0.02     0.05   0.06   0.00
  15   1     0.12  -0.01   0.07    -0.35  -0.01  -0.17    -0.07  -0.01  -0.04
  16   1     0.11   0.01   0.06    -0.18  -0.03  -0.09    -0.01  -0.00  -0.01
  17   1    -0.01   0.01  -0.01     0.21   0.17   0.02     0.04   0.03   0.00
  18   1     0.02  -0.09   0.06    -0.08   0.35  -0.23    -0.01   0.05  -0.04
  19   1     0.00  -0.04  -0.03     0.01  -0.12  -0.03     0.00  -0.02  -0.01
  20   1    -0.05   0.19   0.27     0.06  -0.05  -0.01    -0.26   0.27   0.11
  21   1    -0.02   0.26   0.23    -0.08   0.06   0.08     0.34  -0.20  -0.30
  22   1     0.46  -0.31  -0.25     0.02  -0.05   0.01     0.01   0.17  -0.09
                     34                     35                     36
                        a                      a                      a 
 Frequencies --  1142.6425              1177.8239              1180.1766
 Red. masses --     5.6657                 1.8964                 6.1120
 Frc consts  --     0.0000                 0.0000                 0.0000
 IR Inten    --    28.1251                 8.9648               108.5817
 Raman Activ --     0.0000                 0.0000                 0.0000
 Depolar     --     0.0000                 0.0000                 0.0000
 Atom AN      X      Y      Z        X      Y      Z        X      Y      Z
   1   8    -0.04  -0.10   0.08    -0.01   0.03   0.00     0.04  -0.10  -0.02
   2   8     0.01  -0.17   0.04    -0.01   0.07  -0.02     0.02  -0.24   0.06
   3   8    -0.02   0.02  -0.03    -0.01  -0.01   0.02     0.04   0.04  -0.07
   4   6    -0.31   0.40  -0.05    -0.04  -0.03  -0.04     0.06   0.08   0.10
   5   6     0.19   0.00   0.00     0.12   0.12   0.01    -0.36  -0.21  -0.13
   6   6     0.00  -0.01   0.03    -0.05  -0.06   0.01    -0.07   0.09  -0.09
   7   6     0.02   0.07  -0.02     0.09   0.06   0.01    -0.03  -0.09   0.03
   8   6     0.13  -0.03   0.06     0.02  -0.05  -0.01    -0.06   0.18   0.03
   9   6    -0.03  -0.04   0.01    -0.03  -0.06   0.01    -0.01   0.16  -0.09
  10   6    -0.05   0.05  -0.04    -0.01   0.06  -0.04     0.10  -0.08   0.11
  11   6    -0.01  -0.03   0.01    -0.00  -0.07   0.04     0.04  -0.01   0.03
  12   6    -0.01   0.13  -0.06    -0.00  -0.03   0.00     0.00   0.11  -0.02
  13   1     0.53  -0.26  -0.18    -0.09  -0.03  -0.00     0.29   0.12   0.00
  14   1    -0.07  -0.11  -0.01     0.01  -0.00   0.00     0.30   0.39  -0.04
  15   1    -0.02   0.02  -0.04    -0.22   0.05  -0.14     0.21  -0.06   0.13
  16   1     0.01  -0.02   0.01    -0.35   0.02  -0.20    -0.17   0.06  -0.13
  17   1    -0.05  -0.04  -0.02     0.30   0.35  -0.02     0.08   0.03   0.03
  18   1     0.00  -0.04   0.01     0.11  -0.56   0.36     0.05  -0.16   0.11
  19   1     0.03  -0.36  -0.04     0.01  -0.05  -0.00    -0.01   0.16   0.02
  20   1     0.09  -0.11  -0.04    -0.02   0.03   0.02     0.08  -0.11  -0.05
  21   1    -0.13   0.07   0.11     0.02  -0.01  -0.01    -0.09   0.02   0.05
  22   1    -0.01  -0.06   0.05     0.01   0.01  -0.01    -0.03  -0.04   0.05
                     37                     38                     39
                        a                      a                      a 
 Frequencies --  1197.2374              1213.0092              1230.5808
 Red. masses --     4.1918                 6.8011                 8.2782
 Frc consts  --     0.0000                 0.0000                 0.0000
 IR Inten    --   119.3047               134.8774               113.6425
 Raman Activ --     0.0000                 0.0000                 0.0000
 Depolar     --     0.0000                 0.0000                 0.0000
 Atom AN      X      Y      Z        X      Y      Z        X      Y      Z
   1   8    -0.04   0.06   0.05    -0.04   0.05  -0.04    -0.10   0.01   0.12
   2   8    -0.03   0.25  -0.05     0.07  -0.36   0.05    -0.02   0.22  -0.06
   3   8    -0.05  -0.04   0.07     0.07   0.03  -0.08    -0.04  -0.03   0.07
   4   6    -0.03   0.01  -0.07     0.24   0.06  -0.05     0.36   0.33  -0.07
   5   6     0.16   0.10   0.04     0.01   0.14   0.02    -0.37  -0.09  -0.11
   6   6     0.10   0.07   0.02     0.04  -0.02   0.02    -0.08  -0.03  -0.03
   7   6     0.11   0.01   0.06     0.06  -0.02   0.04    -0.12  -0.06  -0.04
   8   6     0.11  -0.23  -0.03    -0.23   0.38   0.05     0.07  -0.26  -0.02
   9   6    -0.10  -0.04  -0.04    -0.00  -0.05   0.02     0.06   0.10  -0.03
  10   6    -0.10  -0.07  -0.02    -0.05  -0.04  -0.02     0.11  -0.06   0.09
  11   6    -0.05  -0.02  -0.02    -0.02   0.00  -0.01     0.05   0.00   0.03
  12   6     0.00  -0.09   0.00    -0.01   0.10   0.03     0.01  -0.07   0.01
  13   1    -0.06  -0.03  -0.02    -0.43  -0.47  -0.04    -0.11  -0.09  -0.03
  14   1     0.23   0.24  -0.00    -0.03  -0.04   0.02    -0.03  -0.01  -0.01
  15   1     0.33  -0.03   0.19     0.12  -0.01   0.08     0.10  -0.03   0.07
  16   1    -0.41   0.02  -0.24    -0.13  -0.00  -0.07     0.14   0.02   0.07
  17   1    -0.30  -0.31   0.00    -0.05  -0.04   0.00     0.20   0.17   0.02
  18   1    -0.01  -0.01  -0.00    -0.01   0.01  -0.00     0.02   0.01   0.01
  19   1     0.00  -0.19  -0.03    -0.01  -0.20  -0.05     0.02  -0.47  -0.05
  20   1    -0.07   0.10   0.05     0.08  -0.12  -0.06    -0.06   0.08   0.03
  21   1     0.06  -0.01  -0.03    -0.05  -0.01   0.00     0.04  -0.01  -0.02
  22   1     0.02   0.03  -0.04    -0.02  -0.04   0.05    -0.00   0.04  -0.03
                     40                     41                     42
                        a                      a                      a 
 Frequencies --  1277.6704              1305.4881              1325.1271
 Red. masses --     3.5843                 5.9547                10.4278
 Frc consts  --     0.0000                 0.0000                 0.0000
 IR Inten    --    13.4141                50.7676                 9.2565
 Raman Activ --     0.0000                 0.0000                 0.0000
 Depolar     --     0.0000                 0.0000                 0.0000
 Atom AN      X      Y      Z        X      Y      Z        X      Y      Z
   1   8    -0.03   0.06   0.07    -0.04   0.11   0.15     0.02  -0.03  -0.06
   2   8     0.01  -0.04   0.00     0.02  -0.12   0.02    -0.01   0.04  -0.01
   3   8     0.01  -0.00  -0.01     0.03  -0.00  -0.03    -0.01   0.00   0.01
   4   6     0.08  -0.02  -0.13     0.04  -0.26  -0.21    -0.01   0.11   0.06
   5   6     0.04  -0.19   0.15     0.08  -0.08   0.09     0.07  -0.31   0.22
   6   6    -0.13  -0.11  -0.02     0.16   0.18  -0.01     0.25   0.24   0.01
   7   6     0.18   0.02   0.09    -0.16   0.03  -0.11    -0.29   0.02  -0.17
   8   6    -0.06   0.07   0.01    -0.13   0.22   0.04     0.04  -0.08  -0.02
   9   6    -0.07   0.04  -0.07    -0.10  -0.02  -0.05    -0.35   0.02  -0.20
  10   6     0.03   0.09  -0.04     0.05   0.09  -0.02     0.28   0.31  -0.01
  11   6    -0.03   0.15  -0.10     0.04  -0.19   0.12     0.05  -0.28   0.18
  12   6    -0.00   0.01   0.01    -0.02   0.03   0.02     0.01  -0.01  -0.01
  13   1    -0.10   0.12   0.01     0.09   0.52   0.05    -0.15  -0.27  -0.02
  14   1     0.28   0.33  -0.01    -0.10  -0.10   0.01     0.05   0.04   0.00
  15   1    -0.37   0.05  -0.22     0.06  -0.00   0.03    -0.06   0.00  -0.03
  16   1     0.29  -0.02   0.17    -0.12   0.01  -0.07     0.04  -0.01   0.03
  17   1    -0.25  -0.25  -0.00     0.06   0.08  -0.01    -0.04  -0.05  -0.00
  18   1     0.04  -0.19   0.13    -0.02   0.09  -0.05     0.01  -0.05   0.03
  19   1     0.04  -0.28  -0.02     0.06  -0.45  -0.02    -0.02   0.16   0.00
  20   1     0.01  -0.01  -0.00     0.04  -0.06  -0.02    -0.02   0.03   0.01
  21   1     0.00  -0.01  -0.01     0.03  -0.02  -0.04    -0.01   0.01   0.02
  22   1     0.00  -0.01   0.00     0.04  -0.03  -0.00    -0.02   0.02   0.00
                     43                     44                     45
                        a                      a                      a 
 Frequencies --  1370.0133              1423.2692              1435.4600
 Red. masses --     2.6888                 1.5695                 8.8533
 Frc consts  --     0.0000                 0.0000                 0.0000
 IR Inten    --    30.8033                16.9710                 0.1284
 Raman Activ --     0.0000                 0.0000                 0.0000
 Depolar     --     0.0000                 0.0000                 0.0000
 Atom AN      X      Y      Z        X      Y      Z        X      Y      Z
   1   8     0.00  -0.01  -0.01     0.00   0.00  -0.00     0.01  -0.00  -0.01
   2   8    -0.08   0.13   0.04     0.01   0.04   0.02    -0.00   0.01  -0.00
   3   8    -0.03  -0.03   0.05     0.00   0.00  -0.00    -0.00   0.00   0.00
   4   6    -0.00   0.03   0.02    -0.00   0.00  -0.00     0.00   0.08  -0.02
   5   6    -0.01  -0.00  -0.00    -0.00   0.00  -0.00     0.05  -0.34   0.22
   6   6     0.00  -0.01   0.00     0.00   0.00   0.00    -0.24   0.03  -0.15
   7   6    -0.01  -0.01  -0.00    -0.00  -0.00  -0.00     0.22   0.20   0.01
   8   6     0.06  -0.08  -0.04     0.00  -0.02   0.01     0.01  -0.03  -0.01
   9   6    -0.01   0.00  -0.01    -0.00  -0.00   0.00     0.27   0.19   0.05
  10   6     0.02   0.01   0.01     0.00   0.00   0.00    -0.30  -0.03  -0.15
  11   6    -0.00   0.01  -0.00    -0.00   0.00  -0.00     0.06  -0.32   0.20
  12   6    -0.22   0.19   0.12     0.14   0.13   0.11    -0.00  -0.00   0.01
  13   1    -0.01  -0.04  -0.00     0.00  -0.00  -0.00    -0.08  -0.08  -0.01
  14   1     0.01   0.01  -0.00     0.00  -0.00  -0.00     0.05   0.14  -0.05
  15   1     0.00  -0.00   0.00    -0.00  -0.00   0.00    -0.12   0.08  -0.11
  16   1     0.01  -0.00   0.01     0.00  -0.00   0.00    -0.15   0.08  -0.13
  17   1    -0.00  -0.01   0.00    -0.00  -0.00   0.00     0.08   0.17  -0.05
  18   1     0.00  -0.01   0.01     0.00  -0.00   0.00    -0.07   0.30  -0.20
  19   1    -0.01   0.04   0.00    -0.00   0.00  -0.00     0.00   0.02   0.00
  20   1     0.29  -0.49  -0.14    -0.33   0.21  -0.34    -0.01  -0.02  -0.04
  21   1     0.35  -0.14  -0.39    -0.51  -0.43  -0.16     0.00   0.01   0.01
  22   1     0.38  -0.22  -0.12     0.31  -0.34   0.01     0.02   0.02  -0.03
                     46                     47                     48
                        a                      a                      a 
 Frequencies --  1438.2810              1466.8213              1592.4578
 Red. masses --     1.6024                 8.8818                11.5535
 Frc consts  --     0.0000                 0.0000                 0.0000
 IR Inten    --     6.5754                 2.5443                 0.1111
 Raman Activ --     0.0000                 0.0000                 0.0000
 Depolar     --     0.0000                 0.0000                 0.0000
 Atom AN      X      Y      Z        X      Y      Z        X      Y      Z
   1   8    -0.00  -0.00   0.00    -0.00  -0.00  -0.00     0.01   0.01   0.00
   2   8     0.02   0.03  -0.04     0.00  -0.02   0.00    -0.00   0.00  -0.00
   3   8    -0.01  -0.02   0.02    -0.00  -0.01   0.01    -0.00   0.00   0.00
   4   6     0.00   0.01  -0.00    -0.07  -0.04  -0.03    -0.01   0.03  -0.02
   5   6     0.01  -0.02   0.01     0.35   0.14   0.12     0.09  -0.42   0.28
   6   6    -0.02  -0.00  -0.01    -0.13  -0.30   0.09     0.10   0.30  -0.11
   7   6     0.01   0.01  -0.00    -0.20   0.16  -0.20    -0.16   0.19  -0.19
   8   6     0.01   0.00  -0.01    -0.01   0.03  -0.01    -0.00  -0.01  -0.00
   9   6     0.01   0.01  -0.00    -0.26   0.14  -0.22     0.13  -0.19   0.18
  10   6    -0.02  -0.01  -0.01    -0.18  -0.30   0.06    -0.08  -0.31   0.12
  11   6     0.01  -0.02   0.01     0.24   0.07   0.10    -0.08   0.44  -0.28
  12   6    -0.00   0.13  -0.17     0.00  -0.00   0.00    -0.00   0.00   0.00
  13   1    -0.01  -0.00  -0.00    -0.04  -0.01  -0.00    -0.05  -0.03  -0.00
  14   1     0.01   0.01  -0.00     0.21   0.18   0.02    -0.07  -0.03  -0.02
  15   1    -0.00   0.00  -0.00     0.23   0.02   0.11     0.07   0.04   0.01
  16   1    -0.00   0.00  -0.01     0.23   0.01   0.12    -0.05  -0.04  -0.01
  17   1     0.01   0.01  -0.00     0.20   0.18   0.01     0.07   0.02   0.03
  18   1    -0.00   0.02  -0.01     0.07   0.05   0.01     0.03  -0.10   0.07
  19   1     0.00   0.00   0.00    -0.00   0.00  -0.00     0.00   0.01  -0.00
  20   1     0.18   0.17   0.55    -0.00  -0.00  -0.01     0.00  -0.00   0.00
  21   1     0.02  -0.21  -0.27    -0.00   0.00   0.01     0.00  -0.00  -0.00
  22   1    -0.24  -0.46   0.45     0.00   0.01  -0.01     0.00  -0.00   0.00
                     49                     50                     51
                        a                      a                      a 
 Frequencies --  1595.9055              1694.2160              2913.6653
 Red. masses --    11.4885                13.3335                 1.7446
 Frc consts  --     0.0000                 0.0000                 0.0000
 IR Inten    --    11.0471               765.8137                29.6534
 Raman Activ --     0.0000                 0.0000                 0.0000
 Depolar     --     0.0000                 0.0000                 0.0000
 Atom AN      X      Y      Z        X      Y      Z        X      Y      Z
   1   8     0.00   0.00  -0.00    -0.00   0.02  -0.00    -0.00  -0.01   0.00
   2   8    -0.00   0.01  -0.00     0.00   0.08  -0.04    -0.00   0.00  -0.00
   3   8     0.01   0.01  -0.02     0.28   0.26  -0.44     0.00   0.00  -0.00
   4   6     0.01   0.01   0.02     0.01  -0.03  -0.04     0.04  -0.05   0.25
   5   6    -0.23  -0.07  -0.09     0.03   0.01   0.01     0.01   0.00   0.01
   6   6     0.36   0.26   0.06    -0.02  -0.02  -0.00    -0.00   0.00  -0.00
   7   6     0.42   0.05   0.21    -0.02  -0.00  -0.01    -0.00   0.00  -0.00
   8   6    -0.01  -0.04   0.03    -0.37  -0.38   0.60     0.00  -0.00   0.01
   9   6    -0.42  -0.05  -0.21     0.01   0.00   0.01     0.00  -0.00   0.00
  10   6    -0.35  -0.26  -0.06     0.01   0.01   0.00    -0.00  -0.00  -0.00
  11   6     0.19   0.06   0.07    -0.01  -0.00  -0.00    -0.00   0.00  -0.00
  12   6    -0.00   0.00  -0.00    -0.02  -0.00   0.01    -0.00   0.00  -0.00
  13   1     0.02  -0.00  -0.00     0.04  -0.03  -0.01    -0.14   0.20  -0.93
  14   1    -0.05  -0.09   0.02     0.01   0.01  -0.00     0.01  -0.00   0.01
  15   1    -0.08   0.03  -0.06     0.00  -0.00   0.00    -0.00   0.00  -0.00
  16   1     0.08  -0.03   0.06    -0.00   0.00  -0.00    -0.00   0.00  -0.00
  17   1     0.05   0.08  -0.02    -0.00  -0.00   0.00    -0.00   0.00  -0.00
  18   1     0.05   0.02   0.01    -0.00   0.00   0.00    -0.00   0.00   0.00
  19   1     0.00   0.01   0.00    -0.01   0.03  -0.00     0.00  -0.00   0.01
  20   1     0.00  -0.00   0.00     0.01  -0.02   0.02    -0.00  -0.00   0.00
  21   1     0.00  -0.00  -0.00     0.03  -0.01  -0.03     0.00  -0.00  -0.00
  22   1     0.00  -0.00   0.00     0.01  -0.02   0.00     0.00   0.00   0.00
                     52                     53                     54
                        a                      a                      a 
 Frequencies --  3000.8640              3002.9277              3047.7985
 Red. masses --     1.9750                 1.3691                 1.8193
 Frc consts  --     0.0000                 0.0000                 0.0000
 IR Inten    --     7.1328                11.3949                 0.8041
 Raman Activ --     0.0000                 0.0000                 0.0000
 Depolar     --     0.0000                 0.0000                 0.0000
 Atom AN      X      Y      Z        X      Y      Z        X      Y      Z
   1   8    -0.00  -0.00   0.00     0.00   0.00  -0.00     0.00   0.00  -0.00
   2   8     0.00   0.00   0.00    -0.01   0.01   0.01     0.00  -0.01  -0.00
   3   8     0.00  -0.00   0.00     0.00   0.00  -0.00     0.00   0.00  -0.00
   4   6     0.00  -0.00   0.00    -0.00  -0.00   0.00    -0.00   0.00   0.00
   5   6     0.00   0.00   0.00     0.00   0.00   0.00    -0.00   0.00   0.00
   6   6     0.00  -0.00   0.00    -0.00  -0.00  -0.00     0.00  -0.00   0.00
   7   6    -0.00  -0.00   0.00     0.00   0.00  -0.00     0.00   0.00  -0.00
   8   6     0.00  -0.00   0.00     0.00  -0.00   0.00     0.00   0.00   0.00
   9   6    -0.00  -0.00   0.00    -0.00  -0.00   0.00     0.00   0.00  -0.00
  10   6     0.00  -0.00   0.00    -0.00   0.00  -0.00    -0.00   0.00  -0.00
  11   6     0.00   0.00   0.00    -0.00  -0.00  -0.00    -0.00   0.00  -0.00
  12   6     0.23   0.17   0.08    -0.05  -0.01   0.17     0.07  -0.19   0.18
  13   1    -0.00   0.00  -0.00    -0.00   0.00  -0.00    -0.00   0.00  -0.00
  14   1    -0.00   0.00  -0.00     0.00   0.00   0.00    -0.00   0.00  -0.00
  15   1     0.00   0.00  -0.00    -0.00  -0.00   0.00    -0.00  -0.00   0.00
  16   1     0.00   0.00  -0.00     0.00   0.00  -0.00    -0.00  -0.00   0.00
  17   1    -0.00   0.00  -0.00     0.00  -0.00   0.00     0.00  -0.00   0.00
  18   1    -0.00  -0.00  -0.00     0.00   0.00   0.00     0.00   0.00   0.00
  19   1     0.00   0.00  -0.00    -0.00  -0.00   0.00    -0.00   0.00   0.00
  20   1    -0.45  -0.36   0.27     0.53   0.42  -0.26     0.10   0.06  -0.03
  21   1     0.01   0.06  -0.03     0.05  -0.09   0.10    -0.36   0.64  -0.61
  22   1    -0.36  -0.31  -0.53    -0.35  -0.30  -0.46    -0.01  -0.04  -0.00
                     55                     56                     57
                        a                      a                      a 
 Frequencies --  3081.6142              3084.3153              3091.2703
 Red. masses --     1.7465                 1.7897                 1.8443
 Frc consts  --     0.0000                 0.0000                 0.0000
 IR Inten    --     1.8707                12.1396               107.3932
 Raman Activ --     0.0000                 0.0000                 0.0000
 Depolar     --     0.0000                 0.0000                 0.0000
 Atom AN      X      Y      Z        X      Y      Z        X      Y      Z
   1   8     0.00   0.00  -0.00     0.00   0.00  -0.00    -0.00   0.00   0.00
   2   8     0.00   0.00   0.00     0.00   0.00   0.00    -0.00  -0.00  -0.00
   3   8     0.00   0.00  -0.00    -0.00   0.00  -0.00    -0.00  -0.00   0.00
   4   6     0.00  -0.00   0.00    -0.00   0.00   0.00    -0.00  -0.00  -0.00
   5   6     0.00   0.00   0.00     0.00  -0.00   0.00    -0.01  -0.00  -0.00
   6   6     0.04  -0.03   0.04     0.08  -0.07   0.09    -0.11   0.10  -0.11
   7   6     0.01   0.03  -0.01    -0.02  -0.05   0.02    -0.02  -0.07   0.03
   8   6    -0.00   0.00   0.00    -0.00  -0.00   0.00     0.00   0.00  -0.00
   9   6     0.03   0.11  -0.04     0.04   0.13  -0.05     0.01   0.04  -0.01
  10   6     0.08  -0.08   0.09    -0.09   0.08  -0.10    -0.07   0.06  -0.07
  11   6    -0.14  -0.06  -0.05     0.02   0.01   0.01    -0.13  -0.06  -0.04
  12   6    -0.00   0.00  -0.00    -0.00   0.00  -0.00     0.00   0.00   0.00
  13   1    -0.00   0.00  -0.00    -0.00  -0.00  -0.00     0.00  -0.00   0.01
  14   1    -0.14   0.12  -0.14    -0.30   0.27  -0.31     0.38  -0.33   0.39
  15   1    -0.04  -0.11   0.04     0.07   0.21  -0.07     0.08   0.26  -0.09
  16   1    -0.14  -0.43   0.16    -0.16  -0.49   0.18    -0.05  -0.14   0.05
  17   1    -0.31   0.28  -0.32     0.33  -0.30   0.34     0.23  -0.20   0.24
  18   1     0.53   0.23   0.17    -0.08  -0.03  -0.02     0.45   0.19   0.15
  19   1     0.00  -0.00   0.00    -0.00   0.00   0.00     0.00   0.00  -0.00
  20   1     0.00   0.00  -0.00     0.00   0.00  -0.00    -0.00  -0.00   0.00
  21   1     0.00  -0.00   0.00     0.00  -0.00   0.00    -0.00   0.00  -0.00
  22   1    -0.00  -0.00  -0.00     0.00   0.00   0.00    -0.00  -0.00  -0.00
                     58                     59                     60
                        a                      a                      a 
 Frequencies --  3097.9060              3103.7962              3372.1070
 Red. masses --     1.8719                 1.9108                 1.8789
 Frc consts  --     0.0000                 0.0000                 0.0000
 IR Inten    --   129.8481                30.4296               140.1743
 Raman Activ --     0.0000                 0.0000                 0.0000
 Depolar     --     0.0000                 0.0000                 0.0000
 Atom AN      X      Y      Z        X      Y      Z        X      Y      Z
   1   8    -0.00   0.00  -0.00    -0.00   0.00  -0.00     0.13   0.04  -0.20
   2   8     0.00   0.00   0.00     0.00  -0.00  -0.00    -0.00   0.00  -0.00
   3   8    -0.00   0.00  -0.00     0.00   0.00  -0.00    -0.00   0.00   0.00
   4   6     0.00  -0.00   0.00     0.00  -0.00  -0.00     0.00   0.01  -0.01
   5   6    -0.00  -0.00  -0.00    -0.01  -0.00  -0.00    -0.00  -0.00  -0.00
   6   6     0.07  -0.06   0.07    -0.04   0.04  -0.05    -0.00   0.00  -0.00
   7   6    -0.05  -0.16   0.06    -0.05  -0.16   0.06    -0.00   0.00  -0.00
   8   6     0.00  -0.00   0.00    -0.00   0.00   0.00    -0.00  -0.00   0.00
   9   6    -0.04  -0.14   0.05     0.03   0.10  -0.04     0.00   0.00  -0.00
  10   6     0.01  -0.01   0.01     0.08  -0.07   0.08     0.00  -0.00   0.00
  11   6    -0.09  -0.03  -0.03     0.11   0.05   0.04     0.00   0.00   0.00
  12   6    -0.00  -0.00   0.00     0.00  -0.00   0.00     0.00   0.00  -0.00
  13   1    -0.00  -0.00  -0.00     0.00  -0.00   0.00     0.00  -0.00   0.01
  14   1    -0.23   0.20  -0.23     0.15  -0.13   0.15     0.00  -0.00   0.00
  15   1     0.18   0.58  -0.20     0.17   0.55  -0.19     0.00  -0.00   0.00
  16   1     0.14   0.45  -0.17    -0.10  -0.32   0.12    -0.00  -0.00   0.00
  17   1    -0.04   0.03  -0.04    -0.25   0.22  -0.26    -0.00   0.00  -0.00
  18   1     0.29   0.12   0.09    -0.38  -0.16  -0.12    -0.00  -0.00  -0.00
  19   1    -0.00   0.00   0.00     0.00   0.00  -0.00    -0.53  -0.18   0.79
  20   1     0.00   0.00  -0.00     0.00   0.00  -0.00    -0.00  -0.00   0.00
  21   1    -0.00   0.00  -0.00    -0.00   0.00  -0.00     0.00  -0.00   0.00
  22   1     0.00  -0.00   0.00    -0.00  -0.00  -0.00    -0.00  -0.00   0.00
