      -----------------------------------------------------------      
     |                   =====================                   |     
     |                           x T B                           |     
     |                   =====================                   |     
     |                         S. Grimme                         |     
     |          Mulliken Center for Theoretical Chemistry        |     
     |                    University of Bonn                     |     
      -----------------------------------------------------------      

   * xtb version 6.4.1 (8725663466f2cbe4bcfeb424dbeae13262b6703d) compiled by 'salvador@Linux' on 07/21/2021

   xtb is free software: you can redistribute it and/or modify it under
   the terms of the GNU Lesser General Public License as published by
   the Free Software Foundation, either version 3 of the License, or
   (at your option) any later version.
   
   xtb is distributed in the hope that it will be useful,
   but WITHOUT ANY WARRANTY; without even the implied warranty of
   MERCHANTABILITY or FITNESS FOR A PARTICULAR PURPOSE.  See the
   GNU Lesser General Public License for more details.
   
   Cite this work as:
   * C. Bannwarth, E. Caldeweyher, S. Ehlert, A. Hansen, P. Pracht,
     J. Seibert, S. Spicher, S. Grimme, WIREs Comput. Mol. Sci., 2020, 11,
     e01493. DOI: 10.1002/wcms.1493
   
   for GFN2-xTB:
   * C. Bannwarth, S. Ehlert and S. Grimme., J. Chem. Theory Comput., 2019,
     15, 1652-1671. DOI: 10.1021/acs.jctc.8b01176
   for GFN1-xTB:
   * S. Grimme, C. Bannwarth, P. Shushkov, J. Chem. Theory Comput., 2017,
     13, 1989-2009. DOI: 10.1021/acs.jctc.7b00118
   for GFN0-xTB:
   * P. Pracht, E. Caldeweyher, S. Ehlert, S. Grimme, ChemRxiv, 2019, preprint.
     DOI: 10.26434/chemrxiv.8326202.v1
   for GFN-FF:
   * S. Spicher and S. Grimme, Angew. Chem. Int. Ed., 2020, 59, 15665-15673.
     DOI: 10.1002/anie.202004239
   
   for ALPB and GBSA implicit solvation:
   * S. Ehlert, M. Stahn, S. Spicher, S. Grimme, J. Chem. Theory Comput.,
     2021, 17, 4250-4261. DOI: 10.1021/acs.jctc.1c00471
   
   for DFT-D4:
   * E. Caldeweyher, C. Bannwarth and S. Grimme, J. Chem. Phys., 2017,
     147, 034112. DOI: 10.1063/1.4993215
   * E. Caldeweyher, S. Ehlert, A. Hansen, H. Neugebauer, S. Spicher,
     C. Bannwarth and S. Grimme, J. Chem. Phys., 2019, 150, 154122.
     DOI: 10.1063/1.5090222
   * E. Caldeweyher, J.-M. Mewes, S. Ehlert and S. Grimme, Phys. Chem. Chem. Phys.
     2020, 22, 8499-8512. DOI: 10.1039/D0CP00502A
   
   for sTDA-xTB:
   * S. Grimme and C. Bannwarth, J. Chem. Phys., 2016, 145, 054103.
     DOI: 10.1063/1.4959605
   
   in the mass-spec context:
   * V. Asgeirsson, C. Bauer and S. Grimme, Chem. Sci., 2017, 8, 4879.
     DOI: 10.1039/c7sc00601b
   * J. Koopman and S. Grimme, ACS Omega 2019, 4, 12, 15120-15133.
     DOI: 10.1021/acsomega.9b02011
   
   for metadynamics refer to:
   * S. Grimme, J. Chem. Theory Comput., 2019, 155, 2847-2862
     DOI: 10.1021/acs.jctc.9b00143
   
   for SPH calculations refer to:
   * S. Spicher and S. Grimme, J. Chem. Theory Comput., 2021, 17, 1701-1714
     DOI: 10.1021/acs.jctc.0c01306
   
   with help from (in alphabetical order)
   P. Atkinson, C. Bannwarth, F. Bohle, G. Brandenburg, E. Caldeweyher
   M. Checinski, S. Dohm, S. Ehlert, S. Ehrlich, I. Gerasimov, J. Koopman
   C. Lavigne, S. Lehtola, F. März, M. Müller, F. Musil, H. Neugebauer
   J. Pisarek, C. Plett, P. Pracht, J. Seibert, P. Shushkov, S. Spicher
   M. Stahn, M. Steiner, T. Strunk, J. Stückrath, T. Rose, and J. Unsleber
   
 * started run on 2021/07/28 at 15:32:30.651     

           -------------------------------------------------
          |                Calculation Setup                |
           -------------------------------------------------

          program call               : xtb crest_best.xyz --charge 0 --ohess --alpb water
          coordinate file            : crest_best.xyz
          number of atoms            :                    22
          number of electrons        :                    64
          charge                     :                     0
          spin                       :                   0.0
          first test random number   :      0.57497282698438

   ID    Z sym.   atoms
    1    8 O      1-3
    2    6 C      4-12
    3    1 H      13-22

           -------------------------------------------------
          |                 G F N 2 - x T B                 |
           -------------------------------------------------

        Reference                      10.1021/acs.jctc.8b01176
      * Hamiltonian:
        H0-scaling (s, p, d)           1.850000    2.230000    2.230000
        zeta-weighting                 0.500000
      * Dispersion:
        s8                             2.700000
        a1                             0.520000
        a2                             5.000000
        s9                             5.000000
      * Repulsion:
        kExp                           1.500000    1.000000
        rExp                           1.000000
      * Coulomb:
        alpha                          2.000000
        third order                    shell-resolved
        anisotropic                    true
        a3                             3.000000
        a5                             4.000000
        cn-shift                       1.200000
        cn-exp                         4.000000
        max-rad                        5.000000

      * Solvation model:               ALPB
        Solvent                        water
        Parameter file                 internal GFN2-xTB/ALPB
        Dielectric constant                8.0200E+01
        Reference state                gsolv [1 M gas/solution]
        Free energy shift                  1.0808E-03 Eh       6.7819E-01 kcal/mol
        Temperature                        2.9815E+02 K
        Density                            1.0000E+00 kg/L
        Solvent mass                       1.8000E+01 g/mol
        Interaction kernel             P16
        Born radius scaling (c1)           1.4744E+00
        Born radii integrator          GBOBC
        Born offset                        0.0000E+00 a0       0.0000E+00 AA
        H-bond correction              true
        Ion screening                  false
        Surface tension                    1.0000E-05 Eh       1.5569E+01 dyn/cm
        Grid points                               230 per atom

          ...................................................
          :                      SETUP                      :
          :.................................................:
          :  # basis functions                  58          :
          :  # atomic orbitals                  58          :
          :  # shells                           34          :
          :  # electrons                        64          :
          :  max. iterations                   250          :
          :  Hamiltonian                  GFN2-xTB          :
          :  restarted?                      false          :
          :  GBSA solvation                   true          :
          :  PC potential                    false          :
          :  electronic temp.          300.0000000     K    :
          :  accuracy                    1.0000000          :
          :  -> integral cutoff          0.2500000E+02      :
          :  -> integral neglect         0.1000000E-07      :
          :  -> SCF convergence          0.1000000E-05 Eh   :
          :  -> wf. convergence          0.1000000E-03 e    :
          :  Broyden damping             0.4000000          :
          ...................................................

 iter      E             dE          RMSdq      gap      omega  full diag
   1    -36.9946059 -0.369946E+02  0.462E+00    4.49       0.0  T
   2    -37.0387246 -0.441187E-01  0.250E+00    3.92       1.0  T
   3    -37.0386849  0.396328E-04  0.102E+00    4.24       1.0  T
   4    -37.0421403 -0.345538E-02  0.178E-01    4.01       1.0  T
   5    -37.0423761 -0.235749E-03  0.763E-02    4.01       1.0  T
   6    -37.0424054 -0.293898E-04  0.393E-02    4.01       1.0  T
   7    -37.0424110 -0.557612E-05  0.142E-02    4.01       1.5  T
   8    -37.0424117 -0.706418E-06  0.550E-03    4.01       3.9  T
   9    -37.0424120 -0.234047E-06  0.267E-03    4.01       8.0  T
  10    -37.0424120 -0.345885E-07  0.132E-03    4.01      16.2  T
  11    -37.0424120 -0.570564E-08  0.428E-04    4.01      49.8  T
  12    -37.0424120 -0.123670E-08  0.182E-04    4.01     117.2  T

   *** convergence criteria satisfied after 12 iterations ***

         #    Occupation            Energy/Eh            Energy/eV
      -------------------------------------------------------------
         1        2.0000           -0.7647819             -20.8108
       ...           ...                  ...                  ...
        26        2.0000           -0.4601545             -12.5214
        27        2.0000           -0.4469903             -12.1632
        28        2.0000           -0.4420287             -12.0282
        29        2.0000           -0.4252988             -11.5730
        30        2.0000           -0.4164299             -11.3316
        31        2.0000           -0.4084361             -11.1141
        32        2.0000           -0.4019448             -10.9375 (HOMO)
        33                         -0.2547052              -6.9309 (LUMO)
        34                         -0.2268591              -6.1732
        35                         -0.2234713              -6.0810
        36                         -0.0980125              -2.6671
        37                         -0.0156332              -0.4254
       ...                                ...                  ...
        58                          0.6601124              17.9626
      -------------------------------------------------------------
                  HL-Gap            0.1472396 Eh            4.0066 eV
             Fermi-level           -0.3283250 Eh           -8.9342 eV

 SCC (total)                   0 d,  0 h,  0 min, 17.725 sec
 SCC setup                      ...        0 min,  0.001 sec (  0.004%)
 Dispersion                     ...        0 min,  0.000 sec (  0.001%)
 classical contributions        ...        0 min,  0.000 sec (  0.000%)
 integral evaluation            ...        0 min,  0.002 sec (  0.014%)
 iterations                     ...        0 min, 17.674 sec ( 99.713%)
 molecular gradient             ...        0 min,  0.048 sec (  0.268%)
 printout                       ...        0 min,  0.000 sec (  0.001%)

         :::::::::::::::::::::::::::::::::::::::::::::::::::::
         ::                     SUMMARY                     ::
         :::::::::::::::::::::::::::::::::::::::::::::::::::::
         :: total energy             -36.569090863940 Eh    ::
         :: total w/o Gsasa/hb       -36.565731401891 Eh    ::
         :: gradient norm              0.000215008321 Eh/a0 ::
         :: HOMO-LUMO gap              4.006592981763 eV    ::
         ::.................................................::
         :: SCC energy               -37.042411998584 Eh    ::
         :: -> isotropic ES            0.080144472946 Eh    ::
         :: -> anisotropic ES         -0.001171900783 Eh    ::
         :: -> anisotropic XC          0.009245081072 Eh    ::
         :: -> dispersion             -0.018478024948 Eh    ::
         :: -> Gsolv                  -0.013140128392 Eh    ::
         ::    -> Gelec               -0.009780666343 Eh    ::
         ::    -> Gsasa                0.001459410477 Eh    ::
         ::    -> Ghb                 -0.005899632225 Eh    ::
         ::    -> Gshift               0.001080759698 Eh    ::
         :: repulsion energy           0.473174986457 Eh    ::
         :: add. restraining           0.000000000000 Eh    ::
         :: total charge              -0.000000000000 e     ::
         :::::::::::::::::::::::::::::::::::::::::::::::::::::

      ----------------------------------------------------------- 
     |                   =====================                   |
     |                        A N C O P T                        |
     |                   =====================                   |
     |               Approximate Normal Coordinate               |
     |                Rational Function Optimizer                |
      ----------------------------------------------------------- 

          ...................................................
          :                      SETUP                      :
          :.................................................:
          :   optimization level            normal          :
          :   max. optcycles                   200          :
          :   ANC micro-cycles                  20          :
          :   degrees of freedom                60          :
          :.................................................:
          :   RF solver                   davidson          :
          :   write xtbopt.log                true          :
          :   linear?                        false          :
          :   energy convergence         0.5000000E-05 Eh   :
          :   grad. convergence          0.1000000E-02 Eh/α :
          :   maximium RF displ.         1.0000000          :
          :   Hlow (freq-cutoff)         0.1000000E-01      :
          :   Hmax (freq-cutoff)         5.0000000          :
          :   S6 in model hess.         20.0000000          :
          ...................................................

generating ANC from model Hessian ...
Using Lindh-Hessian (1995)
 Shifting diagonal of input Hessian by    9.1034409650099617E-003
 Lowest  eigenvalues of input Hessian
    0.000000    0.000000    0.000000    0.000000    0.000000    0.000000
    0.010000    0.010763    0.012968    0.014327    0.019082    0.020981
    0.023570    0.024844    0.031325    0.033026    0.035401    0.036989
 Highest eigenvalues
    1.620675    1.826206    1.901597    2.008185    2.021908    2.360511


........................................................................
.............................. CYCLE    1 ..............................
........................................................................
   1    -37.0424120 -0.370424E+02  0.838E-05    4.01       0.0  T
   2    -37.0424120 -0.223181E-10  0.533E-05    4.01     400.3  T
   3    -37.0424120 -0.386535E-11  0.331E-05    4.01     643.3  T
     SCC iter.                  ...        0 min, 13.055 sec
     gradient                   ...        0 min,  0.029 sec
 * total energy  :   -36.5690909 Eh     change       -0.1673826E-09 Eh
   gradient norm :     0.0002158 Eh/α   predicted     0.0000000E+00 (-100.00%)
   displ. norm   :     0.0043347 α      lambda       -0.3625173E-07
   maximum displ.:     0.0022466 α      in ANC's #7, #1, #9, ...

   *** GEOMETRY OPTIMIZATION CONVERGED AFTER 1 ITERATIONS ***

------------------------------------------------------------------------
 total energy gain   :        -0.0000000 Eh       -0.0000 kcal/mol
 total RMSD          :         0.0000000 a0        0.0000 Å
 total power (kW/mol):        -0.0000004 (step)   -0.0000 (real)
------------------------------------------------------------------------

 ANCopt (total)                0 d,  0 h,  0 min, 16.393 sec
 optimizer setup                ...        0 min,  0.000 sec (  0.000%)
 model hessian                  ...        0 min,  0.018 sec (  0.110%)
 ANC generation                 ...        0 min,  3.286 sec ( 20.044%)
 coordinate transformation      ...        0 min,  0.000 sec (  0.000%)
 single point calculation       ...        0 min, 13.089 sec ( 79.845%)
 optimization log               ...        0 min,  0.000 sec (  0.000%)
 hessian update                 ...        0 min,  0.000 sec (  0.000%)
 rational function              ...        0 min,  0.000 sec (  0.000%)

================
 final structure:
================
22
 xtb: 6.4.1 (8725663466f2cbe4bcfeb424dbeae13262b6703d)
O         0.77205485460000    2.26427145500000    0.61767170910000
O         1.85791953290000   -1.09836227800000    0.29726433040000
O         2.26319295250000    0.71593120020000   -0.96482715460000
C         0.65132497930000    0.88006844290000    0.79710540750000
C        -0.70325560040000    0.32617694180000    0.37678931230000
C        -1.10627503100000   -0.92275567990000    0.83289508280000
C        -1.52720898050000    1.04515727920000   -0.47550166160000
C         1.68911310140000    0.15595883140000   -0.05232321710000
C        -2.32336405800000   -1.44565922750000    0.43508377820000
C        -2.74780241660000    0.52090075040000   -0.86688705430000
C        -3.14612791850000   -0.72552610730000   -0.41637813300000
C         2.75837267720000   -1.90670940960000   -0.47465195040000
H         0.82640159510000    0.64962581020000    1.85468353660000
H        -0.46238478570000   -1.48234133090000    1.49428478010000
H        -1.21753713080000    2.02153549410000   -0.81433459230000
H        -2.63153502390000   -2.41605860930000    0.79271851780000
H        -3.38482179220000    1.08922571290000   -1.52722465000000
H        -4.09563813660000   -1.13470885400000   -0.72535851350000
H         1.30568559690000    2.41835238130000   -0.18181100780000
H         3.54371366830000   -1.28455266830000   -0.90407119490000
H         3.16839855870000   -2.63997819040000    0.21359167730000
H         2.19957267220000   -2.39707208300000   -1.27110472090000

 Bond Distances (Angstroems)
 ---------------------------
O1-C4=1.4010         O1-H19=0.9735        O2-C8=1.3130         O2-C12=1.4353        O3-C8=1.2148         C4-O1=1.4010         
C4-C5=1.5226         C4-C8=1.5241         C4-H13=1.0965        C5-C4=1.5226         C5-C6=1.3893         C5-C7=1.3864         
C6-C5=1.3893         C6-C9=1.3831         C6-H14=1.0794        C7-C5=1.3864         C7-C10=1.3849        C7-H15=1.0789        
C8-O2=1.3130         C8-O3=1.2148         C8-C4=1.5241         C9-C6=1.3831         C9-C11=1.3858        C9-H16=1.0791        
C10-C7=1.3849        C10-C11=1.3839       C10-H17=1.0793       C11-C9=1.3858        C11-C10=1.3839       C11-H18=1.0791       
C12-O2=1.4353        C12-H20=1.0901       C12-H21=1.0860       C12-H22=1.0895       H13-C4=1.0965        H14-C6=1.0794        
H15-C7=1.0789        H16-C9=1.0791        H17-C10=1.0793       H18-C11=1.0791       H19-O1=0.9735        H20-C12=1.0901       
H21-C12=1.0860       H22-C12=1.0895       
 C  H  Rav=1.0842 sigma=0.0062  Rmin=1.0789  Rmax=1.0965     9
 C  C  Rav=1.4200 sigma=0.0597  Rmin=1.3831  Rmax=1.5241     8
 O  H  Rav=0.9735 sigma=0.0000  Rmin=0.9735  Rmax=0.9735     1
 O  C  Rav=1.3410 sigma=0.0854  Rmin=1.2148  Rmax=1.4353     4

 selected bond angles (degree)
 --------------------
H19-O1-C4=107.99               C12-O2-C8=118.39               C5-C4-O1=113.62                C8-C4-O1=109.84                
C8-C4-C5=106.21                H13-C4-O1=108.51               H13-C4-C5=109.38               H13-C4-C8=109.21               
C6-C5-C4=119.63                C7-C5-C4=120.65                C7-C5-C6=119.71                C9-C6-C5=120.05                
H14-C6-C5=119.61               H14-C6-C9=120.34               C10-C7-C5=120.08               H15-C7-C5=119.46               
H15-C7-C10=120.45              O3-C8-O2=125.42                C4-C8-O2=113.14                C4-C8-O3=121.43                
C11-C9-C6=120.18               H16-C9-C6=119.73               H16-C9-C11=120.09              C11-C10-C7=120.17              
H17-C10-C7=119.59              H17-C10-C11=120.24             

 selected dihedral angles (degree)
 ---------------------------------
C5-C4-O1-H19=257.08           C8-C4-O1-H19= 15.87           H13-C4-O1-H19=135.19          C6-C5-C4-O1=198.08            
C6-C5-C4-C8= 77.22            C6-C5-C4-H13=319.48           C7-C5-C4-O1= 19.25            C7-C5-C4-C8=258.40            
C7-C5-C4-H13=140.66           C9-C6-C5-C4=181.29            C9-C6-C5-C7=  0.12            H14-C6-C5-C4=  1.00           
H14-C6-C5-C7=179.84           C10-C7-C5-C4=178.99           C10-C7-C5-C6=  0.16           H15-C7-C5-C4=357.83           
H15-C7-C5-C6=179.00           O3-C8-O2-C12=357.86           C4-C8-O2-C12=176.74           O2-C8-C4-O1=164.50            
O2-C8-C4-C5=287.76            O2-C8-C4-H13= 45.61           O3-C8-C4-O1=343.42            O3-C8-C4-C5=106.68            
O3-C8-C4-H13=224.54           C11-C9-C6-C5=359.85           C11-C9-C6-H14=180.14          H16-C9-C6-C5=180.02           
H16-C9-C6-H14=  0.31          C11-C10-C7-C5=359.58          C11-C10-C7-H15=180.75         H17-C10-C7-C5=179.74          
H17-C10-C7-H15=  0.91         
           -------------------------------------------------
          |                Final Singlepoint                |
           -------------------------------------------------

          ...................................................
          :                      SETUP                      :
          :.................................................:
          :  # basis functions                  58          :
          :  # atomic orbitals                  58          :
          :  # shells                           34          :
          :  # electrons                        64          :
          :  max. iterations                   250          :
          :  Hamiltonian                  GFN2-xTB          :
          :  restarted?                      false          :
          :  GBSA solvation                   true          :
          :  PC potential                    false          :
          :  electronic temp.          300.0000000     K    :
          :  accuracy                    1.0000000          :
          :  -> integral cutoff          0.2500000E+02      :
          :  -> integral neglect         0.1000000E-07      :
          :  -> SCF convergence          0.1000000E-05 Eh   :
          :  -> wf. convergence          0.1000000E-03 e    :
          :  Broyden damping             0.4000000          :
          ...................................................

 iter      E             dE          RMSdq      gap      omega  full diag
   1    -37.0424120 -0.370424E+02  0.831E-06    4.01       0.0  T
   2    -37.0424120 -0.234479E-12  0.579E-06    4.01    3679.9  T
   3    -37.0424120 -0.284217E-13  0.363E-06    4.01    5873.7  T

   *** convergence criteria satisfied after 3 iterations ***

         #    Occupation            Energy/Eh            Energy/eV
      -------------------------------------------------------------
         1        2.0000           -0.7647823             -20.8108
       ...           ...                  ...                  ...
        26        2.0000           -0.4601551             -12.5215
        27        2.0000           -0.4469907             -12.1632
        28        2.0000           -0.4420300             -12.0282
        29        2.0000           -0.4253000             -11.5730
        30        2.0000           -0.4164307             -11.3317
        31        2.0000           -0.4084378             -11.1142
        32        2.0000           -0.4019459             -10.9375 (HOMO)
        33                         -0.2547052              -6.9309 (LUMO)
        34                         -0.2268608              -6.1732
        35                         -0.2234724              -6.0810
        36                         -0.0980140              -2.6671
        37                         -0.0156339              -0.4254
       ...                                ...                  ...
        58                          0.6601110              17.9625
      -------------------------------------------------------------
                  HL-Gap            0.1472407 Eh            4.0066 eV
             Fermi-level           -0.3283255 Eh           -8.9342 eV

 SCC (total)                   0 d,  0 h,  0 min, 13.266 sec
 SCC setup                      ...        0 min,  0.001 sec (  0.005%)
 Dispersion                     ...        0 min,  0.000 sec (  0.001%)
 classical contributions        ...        0 min,  0.000 sec (  0.000%)
 integral evaluation            ...        0 min,  0.002 sec (  0.018%)
 iterations                     ...        0 min, 13.238 sec ( 99.789%)
 molecular gradient             ...        0 min,  0.025 sec (  0.187%)
 printout                       ...        0 min,  0.000 sec (  0.001%)

         :::::::::::::::::::::::::::::::::::::::::::::::::::::
         ::                     SUMMARY                     ::
         :::::::::::::::::::::::::::::::::::::::::::::::::::::
         :: total energy             -36.569090864114 Eh    ::
         :: total w/o Gsasa/hb       -36.565731375459 Eh    ::
         :: gradient norm              0.000216239661 Eh/a0 ::
         :: HOMO-LUMO gap              4.006623371349 eV    ::
         ::.................................................::
         :: SCC energy               -37.042411998758 Eh    ::
         :: -> isotropic ES            0.080144462566 Eh    ::
         :: -> anisotropic ES         -0.001171599599 Eh    ::
         :: -> anisotropic XC          0.009245091238 Eh    ::
         :: -> dispersion             -0.018478007258 Eh    ::
         :: -> Gsolv                  -0.013139888388 Eh    ::
         ::    -> Gelec               -0.009780399733 Eh    ::
         ::    -> Gsasa                0.001459410477 Eh    ::
         ::    -> Ghb                 -0.005899658831 Eh    ::
         ::    -> Gshift               0.001080759698 Eh    ::
         :: repulsion energy           0.473174986457 Eh    ::
         :: add. restraining           0.000000000000 Eh    ::
         :: total charge              -0.000000000000 e     ::
         :::::::::::::::::::::::::::::::::::::::::::::::::::::

           ------------------------------------------------- 
          |                Numerical Hessian                |
           ------------------------------------------------- 
step length          :   0.00500
SCC accuracy         :   0.30000
Hessian scale factor :   1.00000
frozen atoms in %    :   0.00000    0
RMS gradient         :   0.00022
estimated CPU  time    286.24 min
estimated wall time     29.18 min

writing file <hessian>.

 projected vibrational frequencies (cm⁻¹)
eigval :       -0.00    -0.00    -0.00     0.00     0.00     0.00
eigval :       30.38    38.77    55.18    70.29   162.60   184.40
eigval :      222.01   245.50   315.60   343.48   354.51   370.99
eigval :      443.52   478.47   573.15   589.87   651.96   665.12
eigval :      717.22   764.85   831.02   875.90   899.80   917.26
eigval :      926.80   929.73   979.78   988.36  1081.19  1096.34
eigval :     1102.40  1123.47  1125.80  1142.64  1177.82  1180.18
eigval :     1197.24  1213.01  1230.58  1277.67  1305.49  1325.13
eigval :     1370.01  1423.27  1435.46  1438.28  1466.82  1592.46
eigval :     1595.91  1694.22  2913.67  3000.86  3002.93  3047.80
eigval :     3081.61  3084.32  3091.27  3097.91  3103.80  3372.11
           -------------------------------------------------
          |                Property Printout                |
           -------------------------------------------------

    * Orbital Energies and Occupations

         #    Occupation            Energy/Eh            Energy/eV
      -------------------------------------------------------------
         1        2.0000           -0.7647823             -20.8108
       ...           ...                  ...                  ...
        20        2.0000           -0.4941726             -13.4471
        21        2.0000           -0.4909606             -13.3597
        22        2.0000           -0.4903216             -13.3423
        23        2.0000           -0.4833584             -13.1529
        24        2.0000           -0.4811061             -13.0916
        25        2.0000           -0.4768626             -12.9761
        26        2.0000           -0.4601551             -12.5215
        27        2.0000           -0.4469907             -12.1632
        28        2.0000           -0.4420300             -12.0282
        29        2.0000           -0.4253000             -11.5730
        30        2.0000           -0.4164307             -11.3317
        31        2.0000           -0.4084379             -11.1142
        32        2.0000           -0.4019459             -10.9375 (HOMO)
        33                         -0.2547052              -6.9309 (LUMO)
        34                         -0.2268608              -6.1732
        35                         -0.2234724              -6.0810
        36                         -0.0980140              -2.6671
        37                         -0.0156339              -0.4254
        38                          0.0483087               1.3145
        39                          0.0877101               2.3867
        40                          0.1226945               3.3387
        41                          0.1257821               3.4227
        42                          0.1370813               3.7302
        43                          0.1467455               3.9931
       ...                                ...                  ...
        58                          0.6601110              17.9625
      -------------------------------------------------------------
                  HL-Gap            0.1472407 Eh            4.0066 eV
             Fermi-level           -0.3283255 Eh           -8.9342 eV

     #   Z          covCN         q      C6AA      α(0)
     1   8 O        1.655    -0.483    22.525     6.407
     2   8 O        1.703    -0.251    18.164     5.754
     3   8 O        0.856    -0.476    23.251     6.465
     4   6 C        3.732     0.089    19.199     6.254
     5   6 C        2.979    -0.004    28.110     8.697
     6   6 C        2.922    -0.043    29.068     8.841
     7   6 C        2.922    -0.034    28.848     8.808
     8   6 C        2.723     0.353    21.009     7.504
     9   6 C        2.920    -0.033    28.826     8.804
    10   6 C        2.920    -0.034    28.846     8.808
    11   6 C        2.920    -0.036    28.889     8.814
    12   6 C        3.648     0.000    20.904     6.569
    13   1 H        0.924     0.072     2.063     2.246
    14   1 H        0.926     0.046     2.371     2.408
    15   1 H        0.926     0.049     2.329     2.387
    16   1 H        0.926     0.050     2.314     2.379
    17   1 H        0.926     0.047     2.358     2.401
    18   1 H        0.926     0.048     2.343     2.394
    19   1 H        0.804     0.352     0.585     1.201
    20   1 H        0.925     0.084     1.935     2.176
    21   1 H        0.925     0.111     1.692     2.034
    22   1 H        0.925     0.092     1.858     2.131

 Mol. C6AA /au·bohr⁶  :       5366.753667
 Mol. C8AA /au·bohr⁸  :     126342.766500
 Mol. α(0) /au        :        113.480921


Wiberg/Mayer (AO) data.
largest (>0.10) Wiberg bond orders for each atom

 ---------------------------------------------------------------------------
     #   Z sym  total        # sym  WBO       # sym  WBO       # sym  WBO
 ---------------------------------------------------------------------------
     1   8 O    1.938 --     4 C    1.010    19 H    0.846
     2   8 O    2.340 --     8 C    1.198    12 C    0.924     3 O    0.173
     3   8 O    1.990 --     8 C    1.678     2 O    0.173
     4   6 C    3.958 --     1 O    1.010     5 C    0.949    13 H    0.940
                             8 C    0.936
     5   6 C    3.983 --     7 C    1.421     6 C    1.406     4 C    0.949
                            11 C    0.108
     6   6 C    3.991 --     9 C    1.451     5 C    1.406    14 H    0.967
                            10 C    0.113
     7   6 C    3.991 --    10 C    1.436     5 C    1.421    15 H    0.966
                             9 C    0.110
     8   6 C    3.913 --     3 O    1.678     2 O    1.198     4 C    0.936
     9   6 C    3.991 --     6 C    1.451    11 C    1.432    16 H    0.969
                             7 C    0.110
    10   6 C    3.991 --    11 C    1.445     7 C    1.436    17 H    0.970
                             6 C    0.113
    11   6 C    3.989 --    10 C    1.445     9 C    1.432    18 H    0.970
                             5 C    0.108
    12   6 C    3.887 --    20 H    0.977    21 H    0.974    22 H    0.972
                             2 O    0.924
    13   1 H    0.995 --     4 C    0.940
    14   1 H    0.998 --     6 C    0.967
    15   1 H    0.998 --     7 C    0.966
    16   1 H    0.997 --     9 C    0.969
    17   1 H    0.997 --    10 C    0.970
    18   1 H    0.997 --    11 C    0.970
    19   1 H    0.876 --     1 O    0.846
    20   1 H    0.993 --    12 C    0.977
    21   1 H    0.987 --    12 C    0.974
    22   1 H    0.991 --    12 C    0.972
 ---------------------------------------------------------------------------

Topologies differ in total number of bonds
Writing topology from bond orders to xtbtopo.mol

molecular dipole:
                 x           y           z       tot (Debye)
 q only:       -0.144      -1.482       0.016
   full:       -0.005      -1.531      -0.037       3.892
molecular quadrupole (traceless):
                xx          xy          yy          xz          yz          zz
 q only:        3.403      -7.802       0.999       2.556      -1.068      -4.402
  q+dip:        4.677      -6.011      -0.494       5.578      -3.785      -4.183
   full:        4.229      -6.803      -0.730       4.211      -2.072      -3.499

           -------------------------------------------------
          |                Geometry Summary                 |
           -------------------------------------------------

      molecular mass/u    :      166.1742454
   center of mass at/Å    :        0.0000102       0.0000021      -0.0000005
  moments of inertia/u·Å² :        0.3289578E+03   0.7390727E+03   0.9253325E+03
rotational constants/cm⁻¹ :        0.5124557E-01   0.2280917E-01   0.1821792E-01

 * 20 selected distances

     #   Z          #   Z                                           value/Å
     1   8 O        4   6 C                                       1.4009961
     5   6 C        6   6 C                                       1.3893487
     5   6 C        7   6 C                                       1.3864457
     2   8 O        8   6 C                                       1.3130227
     3   8 O        8   6 C                                       1.2148252
     6   6 C        9   6 C                                       1.3831080
     7   6 C       10   6 C                                       1.3848739
     9   6 C       11   6 C                                       1.3858281
    10   6 C       11   6 C                                       1.3839080
     2   8 O       12   6 C                                       1.4353033 (max)
     4   6 C       13   1 H                                       1.0964612
     6   6 C       14   1 H                                       1.0794291
     7   6 C       15   1 H                                       1.0788970
     9   6 C       16   1 H                                       1.0791417
    10   6 C       17   1 H                                       1.0792741
    11   6 C       18   1 H                                       1.0791057
     1   8 O       19   1 H                                       0.9734862 (min)
    12   6 C       20   1 H                                       1.0900644
    12   6 C       21   1 H                                       1.0860403
    12   6 C       22   1 H                                       1.0895182

 * 4 distinct bonds (by element types)

   Z      Z             #   av. dist./Å        max./Å        min./Å
   1 H    6 C           9     1.0842146     1.0964612     1.0788970
   6 C    6 C           6     1.3855854     1.3893487     1.3831080
   1 H    8 O           1     0.9734862     0.9734862     0.9734862
   6 C    8 O           4     1.3410368     1.4353033     1.2148252

           -------------------------------------------------
          |               Frequency Printout                |
           -------------------------------------------------
 projected vibrational frequencies (cm⁻¹)
eigval :       -0.00    -0.00    -0.00     0.00     0.00     0.00
eigval :       30.38    38.77    55.18    70.29   162.60   184.40
eigval :      222.01   245.50   315.60   343.48   354.51   370.99
eigval :      443.52   478.47   573.15   589.87   651.96   665.12
eigval :      717.22   764.85   831.02   875.90   899.80   917.26
eigval :      926.80   929.73   979.78   988.36  1081.19  1096.34
eigval :     1102.40  1123.47  1125.80  1142.64  1177.82  1180.18
eigval :     1197.24  1213.01  1230.58  1277.67  1305.49  1325.13
eigval :     1370.01  1423.27  1435.46  1438.28  1466.82  1592.46
eigval :     1595.91  1694.22  2913.67  3000.86  3002.93  3047.80
eigval :     3081.61  3084.32  3091.27  3097.91  3103.80  3372.11
 reduced masses (amu)
   1: 12.09   2: 12.64   3: 11.49   4: 11.99   5: 12.40   6: 12.52   7: 10.72   8:  1.42
   9: 14.73  10: 10.44  11: 11.13  12: 12.15  13: 11.92  14: 11.54  15: 13.12  16:  3.34
  17: 11.74  18:  8.74  19: 11.12  20: 11.05  21: 11.86  22: 11.37  23: 10.96  24: 11.35
  25:  7.83  26:  7.68  27: 10.75  28:  3.33  29:  4.24  30: 10.25  31:  4.19  32:  3.03
  33: 11.82  34: 11.53  35:  7.20  36:  8.41  37:  4.75  38:  4.79  39:  6.05  40:  5.67
  41:  1.90  42:  6.11  43:  4.19  44:  6.80  45:  8.28  46:  3.58  47:  5.95  48: 10.43
  49:  2.69  50:  1.57  51:  8.85  52:  1.60  53:  8.88  54: 11.55  55: 11.49  56: 13.33
  57:  1.74  58:  1.98  59:  1.37  60:  1.82  61:  1.75  62:  1.79  63:  1.84  64:  1.87
  65:  1.91  66:  1.88
 IR intensities (km·mol⁻¹)
   1:  0.37   2:  0.01   3:  1.46   4:  0.24   5:  0.44   6:  0.16   7:  0.78   8:  0.54
   9:  0.86  10:  0.99  11:  6.72  12:  1.60  13: 11.05  14:  4.95  15: 55.08  16:147.51
  17:  6.68  18:  3.77  19:  4.73  20: 12.58  21: 16.79  22:  3.51  23: 15.65  24:  9.04
  25: 32.02  26: 12.76  27:  6.77  28:  0.16  29:  1.85  30: 22.24  31:  0.58  32:  0.04
Molecule has no symmetry elements
It seems to be the C1 point group
  33: 19.89  34: 18.03  35:  8.31  36:153.84  37: 14.56  38: 59.68  39: 64.46  40: 28.13
  41:  8.96  42:108.58  43:119.30  44:134.88  45:113.64  46: 13.41  47: 50.77  48:  9.26
  49: 30.80  50: 16.97  51:  0.13  52:  6.58  53:  2.54  54:  0.11  55: 11.05  56:765.81
  57: 29.65  58:  7.13  59: 11.39  60:  0.80  61:  1.87  62: 12.14  63:107.39  64:129.85
  65: 30.43  66:140.17
 Raman intensities (amu)
   1:  0.00   2:  0.00   3:  0.00   4:  0.00   5:  0.00   6:  0.00   7:  0.00   8:  0.00
   9:  0.00  10:  0.00  11:  0.00  12:  0.00  13:  0.00  14:  0.00  15:  0.00  16:  0.00
  17:  0.00  18:  0.00  19:  0.00  20:  0.00  21:  0.00  22:  0.00  23:  0.00  24:  0.00
  25:  0.00  26:  0.00  27:  0.00  28:  0.00  29:  0.00  30:  0.00  31:  0.00  32:  0.00
  33:  0.00  34:  0.00  35:  0.00  36:  0.00  37:  0.00  38:  0.00  39:  0.00  40:  0.00
  41:  0.00  42:  0.00  43:  0.00  44:  0.00  45:  0.00  46:  0.00  47:  0.00  48:  0.00
  49:  0.00  50:  0.00  51:  0.00  52:  0.00  53:  0.00  54:  0.00  55:  0.00  56:  0.00
  57:  0.00  58:  0.00  59:  0.00  60:  0.00  61:  0.00  62:  0.00  63:  0.00  64:  0.00
  65:  0.00  66:  0.00
 output can be read by thermo (or use thermo option).
 writing <g98.out> molden fake output.
 recommended (thermochemical) frequency scaling factor: 1.0
           -------------------------------------------------
          |             Thermodynamic Functions             |
           -------------------------------------------------

c1  symmetry found (for desy threshold:  0.10E+00) used in thermo

          ...................................................
          :                      SETUP                      :
          :.................................................:
          :  # frequencies                          60      :
          :  # imaginary freq.                       0      :
          :  linear?                             false      :
          :  only rotor calc.                    false      :
          :  symmetry                               c1      :
          :  rotational number                       1      :
          :  scaling factor                  1.0000000      :
          :  rotor cutoff                   50.0000000 cm⁻¹ :
          :  imag. cutoff                  -20.0000000 cm⁻¹ :
          :.................................................:

    mode    ω/cm⁻¹     T·S(HO)/kcal·mol⁻¹    T·S(FR)/kcal·mol⁻¹   T·S(vib)
   ------------------------------------------------------------------------
       1     30.38    -1.73068 ( 11.99%)    -1.20394 ( 88.01%)    -1.26709
       2     38.77    -1.58645 ( 26.55%)    -1.13172 ( 73.45%)    -1.25245
       3     55.18    -1.37822 ( 59.73%)    -1.02722 ( 40.27%)    -1.23687
       4     70.29    -1.23589 ( 79.62%)    -0.95554 ( 20.38%)    -1.17874
       5    162.60    -0.75113 ( 99.11%)    -0.70715 (  0.89%)    -0.75074
       6    184.40    -0.68080 ( 99.46%)    -0.66989 (  0.54%)    -0.68074
       7    222.01    -0.57919 ( 99.74%)    -0.61490 (  0.26%)    -0.57928
       8    245.50    -0.52554 ( 99.83%)    -0.58512 (  0.17%)    -0.52564
   ------------------------------------------------------------------------

   temp. (K)  partition function   enthalpy   heat capacity  entropy
                                   cal/mol     cal/K/mol   cal/K/mol   J/K/mol
 298.15  VIB  0.194E+05             5687.383     37.260     35.355
         ROT  0.115E+07              888.752      2.981     30.706
         INT  0.222E+11             6576.136     40.241     66.062
         TR   0.207E+28             1481.254      4.968     41.213
         TOT                        8057.3896    45.2093   107.2747   448.8373

       T/K    H(0)-H(T)+PV         H(T)/Eh          T*S/Eh         G(T)/Eh
   ------------------------------------------------------------------------
    298.15    0.128403E-01    0.181466E+00    0.509697E-01    0.130496E+00
   ------------------------------------------------------------------------

         :::::::::::::::::::::::::::::::::::::::::::::::::::::
         ::                  THERMODYNAMIC                  ::
         :::::::::::::::::::::::::::::::::::::::::::::::::::::
         :: total free energy         -36.438594474613 Eh   ::
         ::.................................................::
         :: total energy              -36.569090862508 Eh   ::
         :: zero point energy           0.168625787797 Eh   ::
         :: G(RRHO) w/o ZPVE           -0.038129399903 Eh   ::
         :: G(RRHO) contrib.            0.130496387895 Eh   ::
         :::::::::::::::::::::::::::::::::::::::::::::::::::::

optimized geometry written to: xtbopt.xyz


           -------------------------------------------------
          | TOTAL ENERGY              -36.569090862508 Eh   |
          | TOTAL ENTHALPY            -36.387624807081 Eh   |
          | TOTAL FREE ENERGY         -36.438594474613 Eh   |
          | GRADIENT NORM               0.000216268143 Eh/α |
          | HOMO-LUMO GAP               4.006623178590 eV   |
           -------------------------------------------------

------------------------------------------------------------------------
 * finished run on 2021/07/28 at 15:53:22.003     
------------------------------------------------------------------------
 total:
 * wall-time:     0 d,  0 h, 20 min, 51.352 sec
 *  cpu-time:     0 d,  3 h, 26 min, 29.683 sec
 * ratio c/w:     9.901 speedup
 SCF:
 * wall-time:     0 d,  0 h,  0 min, 17.725 sec
 *  cpu-time:     0 d,  0 h,  2 min, 54.740 sec
 * ratio c/w:     9.858 speedup
 ANC optimizer:
 * wall-time:     0 d,  0 h,  0 min, 29.660 sec
 *  cpu-time:     0 d,  0 h,  4 min, 47.200 sec
 * ratio c/w:     9.683 speedup
 analytical hessian:
 * wall-time:     0 d,  0 h, 20 min,  3.321 sec
 *  cpu-time:     0 d,  3 h, 18 min, 41.333 sec
 * ratio c/w:     9.907 speedup

