22
 energy: -36.569090864107 gnorm: 0.000216037377 xtb: 6.4.1 (8725663466f2cbe4bcfeb424dbeae13262b6703d)
O         0.77205485460000    2.26427145500000    0.61767170910000
O         1.85791953290000   -1.09836227800000    0.29726433040000
O         2.26319295250000    0.71593120020000   -0.96482715460000
C         0.65132497930000    0.88006844290000    0.79710540750000
C        -0.70325560040000    0.32617694180000    0.37678931230000
C        -1.10627503100000   -0.92275567990000    0.83289508280000
C        -1.52720898050000    1.04515727920000   -0.47550166160000
C         1.68911310140000    0.15595883140000   -0.05232321710000
C        -2.32336405800000   -1.44565922750000    0.43508377820000
C        -2.74780241660000    0.52090075040000   -0.86688705430000
C        -3.14612791850000   -0.72552610730000   -0.41637813300000
C         2.75837267720000   -1.90670940960000   -0.47465195040000
H         0.82640159510000    0.64962581020000    1.85468353660000
H        -0.46238478570000   -1.48234133090000    1.49428478010000
H        -1.21753713080000    2.02153549410000   -0.81433459230000
H        -2.63153502390000   -2.41605860930000    0.79271851780000
H        -3.38482179220000    1.08922571290000   -1.52722465000000
H        -4.09563813660000   -1.13470885400000   -0.72535851350000
H         1.30568559690000    2.41835238130000   -0.18181100780000
H         3.54371366830000   -1.28455266830000   -0.90407119490000
H         3.16839855870000   -2.63997819040000    0.21359167730000
H         2.19957267220000   -2.39707208300000   -1.27110472090000
