22
 energy: -36.569090864114 gnorm: 0.000216239661 xtb: 6.4.1 (8725663466f2cbe4bcfeb424dbeae13262b6703d)
O         0.77206886635518    2.26426849052496    0.61766506221625
O         1.85791481950944   -1.09837148720850    0.29725976203893
O         2.26319333316690    0.71591766621509   -0.96483630416204
C         0.65133236973939    0.88006642375379    0.79710159793165
C        -0.70325257728333    0.32618128164727    0.37679119783611
C        -1.10627695515000   -0.92274843378250    0.83290055493448
C        -1.52720516786368    1.04516444573334   -0.47549815477494
C         1.68911373532118    0.15594989590182   -0.05232938541612
C        -2.32337010866634   -1.44564630301573    0.43509441141853
C        -2.74780271513341    0.52091362486439   -0.86687837179684
C        -3.14613317071678   -0.72551036091101   -0.41636588465672
C         2.75836103679767   -1.90672468079178   -0.47465825109772
H         0.82641147059628    0.64962472016100    1.85467951808919
H        -0.46238733115134   -1.48233630184472    1.49428898128969
H        -1.21752938862452    2.02154044781162   -0.81433387053249
H        -2.63154490716959   -2.41604344703771    0.79273192040184
H        -3.38482142000079    1.08924077028693   -1.52721473578889
H        -4.09564660981915   -1.13468867524776   -0.72534223657983
H         1.30569762468107    2.41834522739262   -0.18181978632230
H         3.54370378652355   -1.28457280100719   -0.90408132282002
H         3.16838548133742   -2.63999440727195    0.21358522513216
H         2.19955568412686   -2.39708581837209   -1.27110821516735
