 Entering Gaussian System
 *********************************************
 Gaussian 98:
 frequency output generated by the xtb code
 *********************************************
                         Standard orientation:
 --------------------------------------------------------------------
  Center     Atomic     Atomic              Coordinates (Angstroms)
  Number     Number      Type              X           Y           Z
 --------------------------------------------------------------------
    1          6             0        2.672471    1.363281    0.009294
    2          6             0        3.986054    1.172781   -0.351190
    3          6             0        4.540257   -0.110858   -0.439122
    4          6             0        3.794911   -1.237557   -0.173548
    5          6             0        2.462865   -1.059725    0.190927
    6          6             0        1.892334    0.237041    0.283542
    7          7             0        1.494232   -1.972993    0.488541
    8          6             0        0.329529   -1.312059    0.784877
    9          6             0        0.535216    0.040305    0.681426
   10          1             0        2.232924    2.346833    0.079014
   11          1             0        4.606494    2.027537   -0.571362
   12          1             0        5.576093   -0.210960   -0.722365
   13          1             0        4.226368   -2.223005   -0.242610
   14          1             0        1.630763   -2.970374    0.574715
   15          1             0       -0.554465   -1.823804    1.123433
   16          8             0       -0.390353    1.061087    0.903673
   17         16             0       -1.676110    1.092364   -0.036955
   18          8             0       -2.307144    2.355095    0.233627
   19          8             0       -2.490943   -0.075301    0.304140
   20          8             0       -1.211214    0.917710   -1.414075
   21         19             0       -2.083054   -1.218730   -1.688586
 --------------------------------------------------------------------
     1 basis functions        1 primitive gaussians
     1 alpha electrons        1 beta electrons

 Harmonic frequencies (cm**-1), IR intensities (km*mol⁻¹),
 Raman scattering activities (A**4/amu), Raman depolarization ratios,
 reduced masses (AMU), force constants (mDyne/A) and normal coordinates:
                      1                      2                      3
                        a                      a                      a 
 Frequencies --    20.2457                41.6449                54.0925
 Red. masses --    20.4470                16.0822                29.4274
 Frc consts  --     0.0000                 0.0000                 0.0000
 IR Inten    --     2.3934                 2.6933                14.7583
 Raman Activ --     0.0000                 0.0000                 0.0000
 Depolar     --     0.0000                 0.0000                 0.0000
 Atom AN      X      Y      Z        X      Y      Z        X      Y      Z
   1   6     0.15   0.04   0.18     0.15  -0.03  -0.14     0.03  -0.02   0.08
   2   6     0.18   0.05   0.30     0.16  -0.13  -0.05     0.03  -0.05   0.12
   3   6     0.17   0.04   0.24     0.11  -0.16   0.10    -0.03  -0.08   0.02
   4   6     0.11   0.03   0.04     0.04  -0.10   0.17    -0.11  -0.06  -0.12
   5   6     0.08   0.02  -0.08     0.03  -0.00   0.08    -0.11  -0.02  -0.15
   6   6     0.10   0.03  -0.02     0.08   0.03  -0.07    -0.05   0.00  -0.05
   7   7     0.04   0.02  -0.28    -0.02   0.07   0.13    -0.17   0.00  -0.26
   8   6     0.02   0.01  -0.30    -0.00   0.14  -0.00    -0.13   0.04  -0.17
   9   6     0.05   0.02  -0.16     0.05   0.12  -0.13    -0.06   0.04  -0.08
  10   1     0.05   0.01   0.07     0.06  -0.00  -0.08     0.02   0.00   0.05
  11   1     0.07   0.02   0.13     0.06  -0.05  -0.03     0.03  -0.02   0.07
  12   1     0.06   0.01   0.10     0.03  -0.07   0.05    -0.01  -0.03   0.02
  13   1     0.03   0.01  -0.00     0.00  -0.04   0.08    -0.05  -0.02  -0.06
  14   1     0.00   0.00  -0.10    -0.02   0.02   0.06    -0.05  -0.00  -0.07
  15   1    -0.00   0.00  -0.12    -0.01   0.06   0.00    -0.04   0.02  -0.05
  16   8     0.08   0.03  -0.17     0.10   0.20  -0.24    -0.03   0.07  -0.05
  17  16    -0.02  -0.01  -0.07    -0.16  -0.04   0.07    -0.12   0.14   0.00
  18   8     0.06   0.04  -0.08    -0.32  -0.18   0.28    -0.07   0.09   0.06
  19   8    -0.02   0.05   0.12     0.21  -0.23   0.13    -0.05   0.08   0.02
  20   8    -0.15  -0.13  -0.08    -0.38   0.18  -0.07    -0.13   0.12  -0.02
  21  19    -0.49  -0.14   0.23     0.05   0.10  -0.20     0.65  -0.26   0.35
                      4                      5                      6
                        a                      a                      a 
 Frequencies --    79.3415               114.5343               155.9680
 Red. masses --    14.2893                21.2066                14.3640
 Frc consts  --     0.0000                 0.0000                 0.0000
 IR Inten    --     7.9395                 6.0777                 7.8521
 Raman Activ --     0.0000                 0.0000                 0.0000
 Depolar     --     0.0000                 0.0000                 0.0000
 Atom AN      X      Y      Z        X      Y      Z        X      Y      Z
   1   6     0.14   0.06   0.22    -0.00   0.00   0.05     0.16   0.01   0.37
   2   6     0.09  -0.05   0.09    -0.01  -0.00   0.02     0.08  -0.01   0.08
   3   6    -0.07  -0.10  -0.15    -0.02  -0.00  -0.02    -0.03  -0.03  -0.35
   4   6    -0.18  -0.05  -0.22    -0.02  -0.00  -0.03    -0.01  -0.02  -0.24
   5   6    -0.12   0.07  -0.06    -0.02  -0.00   0.00     0.10   0.00   0.15
   6   6     0.02   0.12   0.12    -0.01   0.00   0.03     0.11   0.00   0.24
   7   7    -0.20   0.14  -0.10    -0.02   0.00   0.01     0.14   0.00   0.25
   8   6    -0.10   0.21   0.05    -0.01   0.00   0.03     0.09  -0.02   0.12
   9   6     0.02   0.20   0.17    -0.00   0.00   0.04     0.06  -0.01   0.08
  10   1     0.08   0.03   0.11     0.00   0.00   0.02     0.07   0.01   0.18
  11   1     0.05  -0.03   0.04    -0.00   0.00   0.01     0.03  -0.00   0.04
  12   1    -0.03  -0.05  -0.08    -0.01  -0.00  -0.01    -0.04  -0.01  -0.21
  13   1    -0.09  -0.03  -0.11    -0.01  -0.00  -0.02    -0.02  -0.01  -0.14
  14   1    -0.08   0.03  -0.05    -0.00  -0.00   0.00     0.03  -0.00   0.03
  15   1    -0.04   0.08   0.00    -0.00   0.00   0.01     0.02  -0.01   0.02
  16   8     0.03   0.26   0.12    -0.01  -0.00   0.03    -0.02  -0.04  -0.16
  17  16     0.12  -0.14   0.04     0.13   0.08  -0.16    -0.14   0.08  -0.10
  18   8    -0.17  -0.17  -0.24    -0.17  -0.14   0.20     0.09   0.11   0.11
  19   8     0.25  -0.18   0.13     0.25  -0.18  -0.50    -0.17   0.11  -0.06
  20   8     0.22  -0.22   0.09     0.24   0.49  -0.11    -0.29   0.10  -0.14
  21  19    -0.06  -0.02  -0.14    -0.25  -0.17   0.32    -0.03  -0.21  -0.15
                      7                      8                      9
                        a                      a                      a 
 Frequencies --   182.3828               189.5568               211.4400
 Red. masses --    27.5903                18.5560                10.1972
 Frc consts  --     0.0000                 0.0000                 0.0000
 IR Inten    --    22.7242                10.3288                 2.4039
 Raman Activ --     0.0000                 0.0000                 0.0000
 Depolar     --     0.0000                 0.0000                 0.0000
 Atom AN      X      Y      Z        X      Y      Z        X      Y      Z
   1   6    -0.09  -0.04   0.16    -0.25  -0.01   0.06     0.05   0.01   0.11
   2   6    -0.11   0.05   0.07    -0.25   0.12   0.03    -0.08  -0.03  -0.37
   3   6    -0.09   0.07  -0.10    -0.18   0.15   0.04    -0.04  -0.03  -0.16
   4   6     0.01   0.01  -0.08    -0.05   0.05   0.04     0.08   0.01   0.32
   5   6     0.03  -0.08   0.06    -0.06  -0.10   0.04     0.09   0.03   0.32
   6   6    -0.01  -0.11   0.07    -0.07  -0.12   0.05     0.11   0.04   0.38
   7   7     0.05  -0.10   0.09    -0.11  -0.09  -0.01    -0.05   0.01  -0.18
   8   6     0.00  -0.12   0.01    -0.12  -0.07  -0.03    -0.12  -0.00  -0.43
   9   6    -0.02  -0.12  -0.03    -0.05  -0.08   0.01     0.00   0.02   0.03
  10   1    -0.05  -0.02   0.08    -0.12  -0.02   0.03     0.02   0.00   0.01
  11   1    -0.04   0.03   0.03    -0.09   0.05   0.00    -0.06  -0.02  -0.25
  12   1    -0.03   0.04  -0.07    -0.05   0.07   0.01    -0.03  -0.02  -0.12
  13   1     0.02   0.01  -0.05     0.03   0.03   0.00     0.03   0.00   0.13
  14   1     0.01  -0.03   0.01    -0.04  -0.03  -0.00    -0.04  -0.01  -0.12
  15   1     0.00  -0.04  -0.01    -0.04  -0.02  -0.02    -0.08  -0.01  -0.25
  16   8     0.08   0.01  -0.24     0.28   0.20  -0.18    -0.02  -0.00   0.03
  17  16     0.01  -0.11  -0.18     0.26   0.13   0.02    -0.01  -0.01   0.02
  18   8    -0.11  -0.13  -0.21     0.21   0.08   0.11    -0.03  -0.01  -0.00
  19   8     0.17  -0.14   0.06     0.40   0.02   0.26    -0.02  -0.00  -0.02
  20   8    -0.13  -0.11  -0.18    -0.12   0.08  -0.09     0.05  -0.00   0.04
  21  19     0.12   0.58   0.40    -0.04  -0.28  -0.21     0.03  -0.00   0.05
                     10                     11                     12
                        a                      a                      a 
 Frequencies --   297.4193               328.4839               377.0429
 Red. masses --    17.3022                13.2513                14.6335
 Frc consts  --     0.0000                 0.0000                 0.0000
 IR Inten    --     1.2308                 6.8786                 2.4596
 Raman Activ --     0.0000                 0.0000                 0.0000
 Depolar     --     0.0000                 0.0000                 0.0000
 Atom AN      X      Y      Z        X      Y      Z        X      Y      Z
   1   6    -0.02  -0.10   0.04    -0.01   0.06   0.02    -0.04  -0.07   0.06
   2   6     0.00  -0.01   0.06     0.02   0.04   0.16    -0.06   0.08  -0.06
   3   6     0.05   0.02  -0.08    -0.12   0.00  -0.13    -0.00   0.11   0.04
   4   6     0.11  -0.02  -0.05    -0.08   0.00  -0.03     0.11   0.00  -0.00
   5   6     0.11  -0.09   0.03    -0.03   0.01   0.15     0.04  -0.18  -0.07
   6   6     0.00  -0.12  -0.05    -0.05   0.03  -0.21     0.13  -0.16   0.06
   7   7     0.17  -0.11   0.12     0.02   0.07   0.43    -0.13  -0.09  -0.16
   8   6     0.06  -0.15  -0.10    -0.16   0.07  -0.32     0.03   0.08   0.18
   9   6    -0.05  -0.11  -0.16    -0.09   0.04  -0.48     0.13   0.05   0.11
  10   1    -0.02  -0.03   0.02    -0.00   0.01   0.02    -0.06  -0.04   0.04
  11   1    -0.01   0.01   0.04     0.03   0.01   0.10    -0.04   0.04  -0.04
  12   1     0.01   0.02  -0.05    -0.05  -0.01  -0.10     0.01   0.05   0.03
  13   1     0.04   0.00  -0.03    -0.03   0.00  -0.03     0.08   0.02  -0.00
  14   1     0.04  -0.03   0.00    -0.03   0.01   0.04    -0.05  -0.02   0.06
  15   1     0.03  -0.06  -0.03    -0.06   0.05  -0.09    -0.00   0.04   0.05
  16   8     0.03   0.02   0.07     0.06   0.04  -0.13     0.28   0.29  -0.34
  17  16    -0.10   0.28   0.13     0.05  -0.09   0.08    -0.05  -0.01   0.01
  18   8    -0.56   0.07  -0.35     0.12  -0.06   0.23    -0.22  -0.14   0.22
  19   8     0.08   0.14   0.22    -0.10  -0.01  -0.07    -0.38   0.19  -0.17
  20   8     0.21   0.19   0.19     0.29  -0.15   0.16     0.25  -0.17   0.12
  21  19    -0.03  -0.12  -0.09     0.01   0.01   0.02    -0.00   0.00  -0.00
                     13                     14                     15
                        a                      a                      a 
 Frequencies --   397.3676               458.1561               459.6668
 Red. masses --     9.0622                 6.2767                13.4747
 Frc consts  --     0.0000                 0.0000                 0.0000
 IR Inten    --     5.7539                48.9398                64.7649
 Raman Activ --     0.0000                 0.0000                 0.0000
 Depolar     --     0.0000                 0.0000                 0.0000
 Atom AN      X      Y      Z        X      Y      Z        X      Y      Z
   1   6    -0.12  -0.03  -0.40    -0.01   0.05  -0.06     0.05  -0.11  -0.04
   2   6     0.04   0.01   0.15     0.04  -0.04   0.13     0.10   0.19   0.03
   3   6     0.07   0.01   0.23    -0.04  -0.05  -0.10     0.01   0.17  -0.07
   4   6    -0.10  -0.02  -0.41    -0.06   0.00   0.03     0.11   0.06  -0.02
   5   6     0.09   0.00   0.28     0.05   0.11   0.27     0.05  -0.28   0.10
   6   6     0.10   0.00   0.36    -0.04   0.08   0.03     0.18  -0.19  -0.07
   7   7     0.03   0.00   0.08    -0.05  -0.03  -0.41    -0.27  -0.12  -0.01
   8   6    -0.04  -0.01  -0.16     0.04  -0.04   0.07    -0.10   0.20  -0.01
   9   6     0.03   0.01   0.13    -0.07  -0.05  -0.10     0.12   0.12  -0.10
  10   1    -0.10  -0.02  -0.34     0.00   0.02  -0.08    -0.06  -0.06  -0.01
  11   1     0.00   0.00   0.01     0.02  -0.02   0.04     0.01   0.07   0.02
  12   1     0.02   0.01   0.07    -0.03  -0.03  -0.10    -0.00   0.04  -0.05
  13   1    -0.09  -0.02  -0.33    -0.06  -0.02  -0.05     0.11   0.05  -0.05
  14   1    -0.03  -0.01  -0.08     0.23   0.09   0.71    -0.10  -0.01   0.26
  15   1    -0.03  -0.01  -0.12     0.02  -0.03   0.03    -0.07   0.13  -0.00
  16   8     0.02   0.04  -0.02    -0.05  -0.08  -0.09     0.01  -0.01   0.17
  17  16    -0.00   0.00  -0.00    -0.02   0.01  -0.08    -0.09  -0.13   0.22
  18   8    -0.03  -0.01   0.01    -0.00  -0.02   0.08     0.18   0.13  -0.31
  19   8    -0.04   0.02  -0.02     0.05   0.03   0.14    -0.03  -0.22  -0.16
  20   8    -0.00  -0.01  -0.00     0.14   0.01   0.00    -0.17   0.21   0.09
  21  19     0.00  -0.00   0.01    -0.01   0.01  -0.01    -0.01  -0.00   0.01
                     16                     17                     18
                        a                      a                      a 
 Frequencies --   489.7502               491.3582               506.9896
 Red. masses --    18.0665                17.6879                18.1247
 Frc consts  --     0.0000                 0.0000                 0.0000
 IR Inten    --   138.7433                77.9899               263.0818
 Raman Activ --     0.0000                 0.0000                 0.0000
 Depolar     --     0.0000                 0.0000                 0.0000
 Atom AN      X      Y      Z        X      Y      Z        X      Y      Z
   1   6     0.07   0.03  -0.04    -0.03   0.12   0.04     0.13  -0.15   0.02
   2   6     0.09   0.13  -0.01    -0.08  -0.04  -0.04     0.13   0.10  -0.13
   3   6    -0.05   0.08  -0.01    -0.09  -0.07   0.09     0.17   0.12   0.04
   4   6    -0.04   0.05   0.02    -0.09  -0.07  -0.01     0.04   0.15  -0.07
   5   6    -0.06  -0.10   0.03    -0.04   0.09  -0.05    -0.04  -0.11  -0.05
   6   6     0.09  -0.02  -0.06     0.01   0.09   0.06     0.03  -0.09   0.08
   7   7    -0.16  -0.05   0.09     0.06   0.05  -0.02    -0.14  -0.06   0.07
   8   6    -0.09   0.09  -0.04     0.05  -0.02   0.05    -0.09   0.03   0.08
   9   6     0.11   0.04  -0.02     0.04  -0.02  -0.01    -0.07   0.02  -0.00
  10   1    -0.00  -0.00   0.00     0.00   0.04   0.01     0.02  -0.05   0.01
  11   1     0.03   0.03   0.00    -0.00  -0.03  -0.04    -0.01   0.05  -0.06
  12   1    -0.02  -0.00  -0.00    -0.02  -0.01   0.05     0.06   0.01   0.04
  13   1     0.02   0.03  -0.00    -0.05  -0.03   0.01     0.04   0.06  -0.03
  14   1    -0.08  -0.02   0.02     0.03   0.01  -0.11    -0.10  -0.03  -0.08
  15   1    -0.05   0.09   0.01     0.03  -0.01   0.04    -0.04   0.03   0.03
  16   8    -0.06  -0.26   0.21     0.11   0.01  -0.31    -0.29  -0.12  -0.14
  17  16     0.35  -0.11  -0.21    -0.10  -0.37   0.08    -0.36   0.05  -0.30
  18   8    -0.18  -0.35   0.07     0.21  -0.07  -0.25     0.12   0.13   0.22
  19   8    -0.18   0.37   0.32    -0.25  -0.07   0.28     0.20  -0.11   0.33
  20   8    -0.04   0.16  -0.28     0.21   0.56   0.07     0.37  -0.01   0.01
  21  19     0.01  -0.00  -0.01    -0.00  -0.01   0.01    -0.01   0.01  -0.00
                     19                     20                     21
                        a                      a                      a 
 Frequencies --   544.6211               547.8129               562.4816
 Red. masses --     9.5627                12.3656                11.7592
 Frc consts  --     0.0000                 0.0000                 0.0000
 IR Inten    --    26.0504                74.2105                15.1608
 Raman Activ --     0.0000                 0.0000                 0.0000
 Depolar     --     0.0000                 0.0000                 0.0000
 Atom AN      X      Y      Z        X      Y      Z        X      Y      Z
   1   6     0.03   0.15   0.27    -0.24   0.16  -0.03    -0.16  -0.19   0.05
   2   6    -0.18   0.00  -0.34    -0.25  -0.06   0.20    -0.16  -0.18   0.04
   3   6    -0.07  -0.02   0.41    -0.28  -0.09  -0.04     0.20  -0.02  -0.05
   4   6    -0.09  -0.15  -0.26     0.17  -0.35   0.07     0.24  -0.06  -0.09
   5   6    -0.03  -0.05  -0.21     0.21  -0.11   0.06     0.14   0.01  -0.19
   6   6     0.15   0.04   0.12     0.18  -0.04  -0.06    -0.14  -0.12  -0.09
   7   7     0.05  -0.01   0.15     0.05   0.08  -0.12     0.12   0.15   0.15
   8   6     0.05   0.07  -0.11     0.22   0.25   0.05    -0.07   0.09  -0.30
   9   6     0.09   0.04  -0.20     0.20   0.20  -0.09    -0.08   0.13   0.33
  10   1    -0.00   0.03   0.10    -0.12   0.02  -0.02    -0.02  -0.05   0.07
  11   1    -0.04  -0.03  -0.21    -0.02  -0.05   0.06    -0.08  -0.01   0.06
  12   1     0.02   0.02   0.24    -0.09   0.06  -0.07     0.08   0.07   0.02
  13   1    -0.01  -0.03  -0.07     0.07  -0.08  -0.01     0.07  -0.02   0.04
  14   1     0.08   0.03   0.34    -0.08  -0.00  -0.18     0.06   0.06   0.30
  15   1    -0.01   0.06  -0.04     0.05   0.11   0.03    -0.01  -0.04  -0.16
  16   8    -0.01  -0.15   0.04    -0.13  -0.12   0.11    -0.11   0.29   0.15
  17  16     0.01   0.08   0.02    -0.16   0.05  -0.16    -0.03  -0.13  -0.12
  18   8    -0.05   0.04  -0.00     0.01   0.06   0.09     0.10  -0.08   0.05
  19   8     0.06  -0.00  -0.04     0.08  -0.03   0.10    -0.09   0.02   0.11
  20   8    -0.03  -0.08   0.02     0.08  -0.04  -0.04     0.03   0.10  -0.09
  21  19    -0.00   0.00  -0.00    -0.00   0.01  -0.00    -0.00   0.01   0.00
                     22                     23                     24
                        a                      a                      a 
 Frequencies --   602.3026               687.3232               703.4278
 Red. masses --    11.7751                14.5993                12.9231
 Frc consts  --     0.0000                 0.0000                 0.0000
 IR Inten    --    21.7169                74.9213                41.1452
 Raman Activ --     0.0000                 0.0000                 0.0000
 Depolar     --     0.0000                 0.0000                 0.0000
 Atom AN      X      Y      Z        X      Y      Z        X      Y      Z
   1   6     0.07   0.18  -0.16     0.12   0.01   0.10     0.00   0.03   0.16
   2   6     0.13   0.16   0.08     0.06   0.10  -0.15    -0.10  -0.06  -0.16
   3   6    -0.27  -0.01  -0.06    -0.12   0.01   0.17     0.13   0.00   0.14
   4   6    -0.15  -0.04   0.12    -0.17   0.01  -0.07     0.04  -0.03  -0.21
   5   6    -0.14  -0.06  -0.15     0.02  -0.04   0.33     0.17   0.05   0.45
   6   6     0.11   0.07  -0.15    -0.06  -0.02  -0.27    -0.13  -0.01  -0.48
   7   7     0.05  -0.16   0.15     0.12  -0.21  -0.08    -0.12   0.14  -0.07
   8   6     0.01  -0.08  -0.27     0.11  -0.12  -0.14    -0.12   0.05  -0.02
   9   6     0.29  -0.05   0.51    -0.01   0.02   0.01     0.10  -0.02   0.28
  10   1     0.02   0.04   0.03     0.01  -0.00   0.04     0.03   0.02   0.10
  11   1     0.12   0.01   0.09     0.04   0.01  -0.05    -0.02  -0.01   0.03
  12   1    -0.07  -0.05   0.02    -0.05  -0.05   0.02     0.04   0.03   0.03
  13   1     0.00   0.00   0.11    -0.05   0.01  -0.05     0.01  -0.01  -0.04
  14   1     0.07  -0.02   0.15     0.04  -0.06  -0.07    -0.07   0.03  -0.08
  15   1    -0.06   0.00  -0.20     0.14  -0.04   0.23    -0.03   0.03   0.02
  16   8     0.09  -0.13  -0.13     0.21   0.36   0.39    -0.09  -0.26  -0.27
  17  16    -0.16   0.08  -0.03    -0.23  -0.07  -0.22     0.10   0.06   0.12
  18   8    -0.05   0.10   0.01     0.06   0.01   0.06    -0.05   0.01  -0.03
  19   8     0.05  -0.06   0.00    -0.07  -0.05   0.04     0.05   0.02  -0.03
  20   8     0.06  -0.03   0.04     0.03   0.02  -0.11    -0.01  -0.01   0.07
  21  19    -0.01  -0.00  -0.00    -0.00   0.01   0.00    -0.00  -0.01  -0.00
                     25                     26                     27
                        a                      a                      a 
 Frequencies --   729.5681               749.6821               772.7887
 Red. masses --     5.0141                15.4465                 3.6612
 Frc consts  --     0.0000                 0.0000                 0.0000
 IR Inten    --    57.7456               407.1839                47.0862
 Raman Activ --     0.0000                 0.0000                 0.0000
 Depolar     --     0.0000                 0.0000                 0.0000
 Atom AN      X      Y      Z        X      Y      Z        X      Y      Z
   1   6     0.03  -0.07   0.02     0.06  -0.09  -0.00     0.06   0.02   0.21
   2   6     0.02   0.02  -0.07     0.07   0.09  -0.02     0.04   0.01   0.13
   3   6    -0.06   0.01   0.06    -0.16   0.02   0.04     0.05   0.01   0.17
   4   6    -0.12   0.03  -0.04    -0.08  -0.02   0.04     0.07   0.01   0.22
   5   6    -0.01  -0.02   0.11    -0.02  -0.11   0.01    -0.04  -0.01  -0.16
   6   6    -0.05  -0.03  -0.14    -0.00  -0.04   0.02    -0.05  -0.01  -0.21
   7   7     0.07  -0.13  -0.05     0.15  -0.22  -0.04     0.00   0.01   0.05
   8   6     0.29   0.04   0.32     0.23   0.01  -0.19    -0.00   0.00   0.01
   9   6    -0.05   0.05  -0.09    -0.05   0.16   0.05     0.03  -0.00   0.09
  10   1     0.01  -0.02   0.06    -0.02  -0.04  -0.01    -0.10  -0.02  -0.33
  11   1     0.02   0.01   0.04     0.02   0.02  -0.02    -0.13  -0.02  -0.45
  12   1    -0.02  -0.03   0.03    -0.05  -0.03   0.00    -0.12  -0.02  -0.45
  13   1    -0.03   0.01   0.01     0.00   0.01  -0.01    -0.12  -0.02  -0.43
  14   1     0.01  -0.04  -0.05     0.01  -0.07  -0.01     0.00   0.00   0.01
  15   1    -0.22  -0.05  -0.77     0.16   0.01   0.22    -0.03  -0.01  -0.07
  16   8    -0.12   0.14   0.03    -0.63   0.23  -0.26     0.00  -0.02  -0.02
  17  16     0.04  -0.02   0.01     0.27  -0.01   0.19    -0.00   0.00   0.00
  18   8     0.03  -0.03   0.01     0.04  -0.07  -0.01    -0.00   0.00   0.00
  19   8    -0.02   0.00   0.02     0.04   0.07  -0.03    -0.00  -0.00   0.00
  20   8     0.00   0.02  -0.02    -0.04   0.01   0.07     0.00   0.00  -0.00
  21  19     0.01  -0.00   0.01     0.00  -0.00  -0.00     0.00  -0.00   0.00
                     28                     29                     30
                        a                      a                      a 
 Frequencies --   787.5437               850.7036               864.9903
 Red. masses --    11.1011                11.2255                 3.4320
 Frc consts  --     0.0000                 0.0000                 0.0000
 IR Inten    --    55.3401                13.0609                 0.4420
 Raman Activ --     0.0000                 0.0000                 0.0000
 Depolar     --     0.0000                 0.0000                 0.0000
 Atom AN      X      Y      Z        X      Y      Z        X      Y      Z
   1   6     0.10   0.39  -0.05    -0.14   0.44   0.01    -0.06  -0.02  -0.20
   2   6     0.13   0.20  -0.05    -0.18  -0.27   0.06    -0.07  -0.01  -0.23
   3   6    -0.09  -0.01   0.03     0.39  -0.05  -0.11     0.03   0.01   0.10
   4   6     0.31  -0.36  -0.07     0.06   0.16  -0.02     0.09   0.02   0.31
   5   6     0.15  -0.09  -0.03    -0.09  -0.09   0.03    -0.01  -0.00  -0.04
   6   6     0.06   0.09  -0.02    -0.01   0.20  -0.01     0.01  -0.00   0.04
   7   7    -0.12   0.03   0.02    -0.12  -0.50   0.06     0.00   0.00   0.01
   8   6    -0.29  -0.26   0.15     0.07  -0.04  -0.02    -0.01   0.00  -0.01
   9   6    -0.22  -0.19   0.01     0.09   0.03  -0.02     0.00  -0.00  -0.01
  10   1     0.05   0.12  -0.01     0.08   0.18  -0.03     0.13   0.02   0.45
  11   1     0.14  -0.02  -0.03    -0.03  -0.08   0.01     0.10   0.02   0.35
  12   1    -0.02   0.06   0.00     0.11   0.05  -0.04    -0.02  -0.00  -0.08
  13   1     0.18  -0.06  -0.05    -0.02   0.02   0.00    -0.18  -0.03  -0.62
  14   1    -0.02   0.01   0.01    -0.10  -0.15   0.02     0.00   0.00   0.01
  15   1    -0.06  -0.19  -0.06    -0.07   0.15   0.02     0.01   0.00   0.02
  16   8    -0.18   0.24   0.04    -0.06   0.10   0.01    -0.00  -0.00  -0.00
  17  16     0.04  -0.03   0.01     0.00  -0.00  -0.00     0.00   0.00  -0.00
  18   8     0.03  -0.02   0.02     0.01   0.01   0.01     0.00  -0.00  -0.00
  19   8    -0.01  -0.00   0.01    -0.01  -0.01   0.00     0.00  -0.00  -0.00
  20   8     0.00   0.01  -0.02     0.00   0.00  -0.01    -0.00   0.00   0.00
  21  19    -0.00  -0.00  -0.00    -0.00   0.00   0.00    -0.00  -0.00  -0.00
                     31                     32                     33
                        a                      a                      a 
 Frequencies --   903.3159               920.9727               973.9317
 Red. masses --     3.8744                 3.1271                17.8375
 Frc consts  --     0.0000                 0.0000                 0.0000
 IR Inten    --     0.1393                 0.0722               291.7495
 Raman Activ --     0.0000                 0.0000                 0.0000
 Depolar     --     0.0000                 0.0000                 0.0000
 Atom AN      X      Y      Z        X      Y      Z        X      Y      Z
   1   6    -0.08  -0.02  -0.28     0.05   0.01   0.18     0.00   0.02   0.00
   2   6     0.03   0.00   0.10    -0.09  -0.02  -0.31     0.01   0.02  -0.01
   3   6     0.09   0.02   0.32     0.06   0.01   0.20    -0.00  -0.00  -0.00
   4   6    -0.06  -0.01  -0.20    -0.01  -0.00  -0.04     0.02  -0.03  -0.00
   5   6     0.00  -0.00  -0.00    -0.02  -0.00  -0.08     0.00  -0.01  -0.00
   6   6     0.02   0.00   0.07     0.02   0.00   0.06    -0.04   0.02   0.01
   7   7    -0.00   0.00  -0.01    -0.00   0.00   0.01     0.02  -0.04  -0.00
   8   6     0.00   0.00  -0.00    -0.00  -0.00  -0.00     0.01   0.03   0.01
   9   6    -0.01   0.00  -0.02     0.00  -0.00   0.00    -0.06   0.03   0.02
  10   1     0.14   0.03   0.47    -0.12  -0.02  -0.40     0.01   0.01  -0.01
  11   1    -0.05  -0.01  -0.19     0.17   0.03   0.61     0.01  -0.00  -0.00
  12   1    -0.16  -0.03  -0.57    -0.12  -0.02  -0.43     0.00   0.01  -0.00
  13   1     0.09   0.02   0.32     0.05   0.01   0.18     0.01  -0.00  -0.01
  14   1     0.00   0.00   0.01     0.00   0.00   0.00    -0.01  -0.01   0.00
  15   1     0.01   0.00   0.02     0.00   0.00   0.01    -0.01   0.01  -0.02
  16   8     0.00  -0.00   0.00     0.00   0.00   0.00     0.05  -0.03   0.01
  17  16     0.00  -0.00  -0.00    -0.00  -0.00   0.00    -0.25  -0.08  -0.23
  18   8     0.00  -0.00  -0.00    -0.00   0.00   0.00     0.19  -0.39  -0.09
  19   8     0.00   0.00  -0.00     0.00   0.00   0.00     0.33   0.45  -0.15
  20   8    -0.00   0.00   0.01     0.00  -0.00  -0.00    -0.19   0.05   0.54
  21  19     0.00   0.00   0.00    -0.00   0.00  -0.00    -0.00   0.00   0.00
                     34                     35                     36
                        a                      a                      a 
 Frequencies --  1029.9590              1047.5320              1057.9161
 Red. masses --     9.4979                 3.3458                 6.5157
 Frc consts  --     0.0000                 0.0000                 0.0000
 IR Inten    --   135.2018                64.1917                 5.6689
 Raman Activ --     0.0000                 0.0000                 0.0000
 Depolar     --     0.0000                 0.0000                 0.0000
 Atom AN      X      Y      Z        X      Y      Z        X      Y      Z
   1   6    -0.08   0.10   0.02    -0.04   0.14   0.00     0.17  -0.09  -0.04
   2   6    -0.09  -0.07   0.03    -0.02  -0.06   0.01    -0.14  -0.42   0.06
   3   6     0.14  -0.08  -0.04     0.05  -0.02  -0.01    -0.33   0.16   0.08
   4   6    -0.16   0.19   0.03    -0.11   0.15   0.02     0.01   0.28  -0.01
   5   6    -0.03  -0.01   0.02    -0.01  -0.14   0.00     0.02  -0.08   0.00
   6   6     0.44  -0.21  -0.12     0.10  -0.06  -0.02     0.09   0.02  -0.03
   7   7    -0.02   0.18  -0.01    -0.12   0.18   0.03    -0.01   0.06  -0.00
   8   6    -0.24  -0.16   0.07     0.17   0.01  -0.04    -0.09  -0.04   0.03
   9   6     0.32  -0.11  -0.08    -0.01   0.05  -0.01     0.08  -0.01  -0.02
  10   1    -0.24  -0.08   0.08    -0.03   0.03   0.01     0.38   0.12  -0.12
  11   1    -0.01  -0.03   0.00     0.04  -0.05  -0.01     0.06  -0.20  -0.01
  12   1     0.03  -0.10  -0.00     0.01  -0.09   0.00    -0.09   0.15   0.02
  13   1    -0.16  -0.00   0.05    -0.05   0.03   0.01     0.39   0.26  -0.12
  14   1     0.37   0.09  -0.10    -0.49  -0.00   0.14     0.12   0.03  -0.03
  15   1    -0.04  -0.11  -0.00     0.38  -0.62  -0.08     0.00  -0.07  -0.00
  16   8    -0.24   0.20   0.05     0.02  -0.04  -0.00    -0.04   0.04   0.01
  17  16    -0.02  -0.03  -0.03    -0.04  -0.03   0.04    -0.00  -0.00  -0.01
  18   8     0.03  -0.03   0.00    -0.00   0.00  -0.00     0.01  -0.01   0.00
  19   8     0.04   0.06  -0.01     0.04   0.05  -0.02     0.01   0.01  -0.00
  20   8    -0.02   0.01   0.05     0.01  -0.01  -0.04    -0.00   0.00   0.02
  21  19    -0.00  -0.00  -0.00     0.00  -0.00   0.00    -0.00  -0.00  -0.00
                     37                     38                     39
                        a                      a                      a 
 Frequencies --  1075.4201              1141.6664              1149.1209
 Red. masses --    22.2631                 4.9461                 4.3915
 Frc consts  --     0.0000                 0.0000                 0.0000
 IR Inten    --   633.7540                31.7745                 7.1469
 Raman Activ --     0.0000                 0.0000                 0.0000
 Depolar     --     0.0000                 0.0000                 0.0000
 Atom AN      X      Y      Z        X      Y      Z        X      Y      Z
   1   6     0.01  -0.01  -0.00    -0.18   0.19   0.04    -0.05   0.03   0.01
   2   6     0.00   0.00  -0.00     0.12   0.01  -0.03     0.06  -0.12  -0.01
   3   6    -0.00   0.00   0.00     0.07  -0.14  -0.01    -0.13   0.00   0.04
   4   6     0.02  -0.02  -0.00     0.01   0.11  -0.01    -0.01   0.21  -0.01
   5   6    -0.01   0.01   0.00    -0.04  -0.19   0.02     0.19   0.17  -0.06
   6   6    -0.02   0.01   0.00    -0.12  -0.06   0.04     0.07  -0.08  -0.02
   7   7     0.01  -0.03  -0.00     0.07  -0.02  -0.02     0.12   0.09  -0.04
   8   6    -0.02   0.01   0.01    -0.02   0.18  -0.01     0.05  -0.11  -0.01
   9   6    -0.00   0.01   0.00    -0.24   0.17   0.06    -0.05  -0.27   0.03
  10   1     0.01  -0.00   0.01    -0.26  -0.04   0.08    -0.26  -0.10   0.08
  11   1    -0.01   0.01   0.00     0.22  -0.14  -0.05     0.33  -0.28  -0.08
  12   1     0.00   0.01  -0.00    -0.01  -0.44   0.03    -0.05  -0.10   0.02
  13   1     0.01  -0.00  -0.00     0.40   0.21  -0.12    -0.01   0.06  -0.00
  14   1     0.07  -0.00  -0.02     0.30   0.03  -0.08    -0.47  -0.03   0.12
  15   1    -0.03   0.04   0.00     0.04  -0.04  -0.01    -0.19   0.37   0.05
  16   8     0.00  -0.01  -0.01     0.11  -0.13  -0.03    -0.05   0.09   0.02
  17  16    -0.34  -0.27   0.46     0.02   0.02   0.01    -0.03   0.02   0.02
  18   8    -0.00   0.01  -0.01    -0.01   0.00  -0.00     0.03  -0.05  -0.01
  19   8     0.30   0.43  -0.14    -0.02  -0.03   0.01     0.00   0.01  -0.00
  20   8     0.18  -0.05  -0.51     0.00  -0.00  -0.01     0.01  -0.00  -0.02
  21  19    -0.00  -0.00   0.00    -0.00   0.00  -0.00    -0.00  -0.00   0.00
                     40                     41                     42
                        a                      a                      a 
 Frequencies --  1173.2650              1175.6714              1219.7176
 Red. masses --    22.6728                 2.7574                 6.1173
 Frc consts  --     0.0000                 0.0000                 0.0000
 IR Inten    --   758.5471                17.0455                45.3321
 Raman Activ --     0.0000                 0.0000                 0.0000
 Depolar     --     0.0000                 0.0000                 0.0000
 Atom AN      X      Y      Z        X      Y      Z        X      Y      Z
   1   6    -0.01  -0.01   0.00     0.05   0.01  -0.01     0.09  -0.14  -0.02
   2   6     0.01  -0.00  -0.00     0.06  -0.09  -0.01     0.04  -0.06  -0.01
   3   6    -0.01  -0.01   0.00    -0.01   0.11  -0.00     0.03  -0.09  -0.00
   4   6     0.01   0.01  -0.00     0.03   0.01  -0.01     0.03  -0.14  -0.00
   5   6     0.01   0.02  -0.01    -0.06   0.00   0.02    -0.19   0.25   0.04
   6   6    -0.02   0.01   0.00     0.00  -0.05   0.00    -0.09   0.31   0.01
   7   7     0.01   0.00  -0.00    -0.01  -0.14   0.01    -0.22  -0.03   0.06
   8   6     0.00  -0.01   0.00    -0.06   0.14   0.01     0.12  -0.17  -0.03
   9   6     0.01  -0.01  -0.01    -0.16   0.16   0.03     0.27  -0.02  -0.07
  10   1    -0.02  -0.01   0.00    -0.22  -0.11   0.07    -0.44  -0.25   0.14
  11   1    -0.00   0.00  -0.00     0.41  -0.34  -0.10    -0.08   0.05   0.02
  12   1    -0.01  -0.05   0.00     0.04   0.59  -0.04     0.03   0.21  -0.02
  13   1     0.04   0.02  -0.01    -0.24  -0.12   0.08     0.41   0.15  -0.13
  14   1    -0.04  -0.00   0.01     0.19  -0.02  -0.06    -0.04  -0.01   0.02
  15   1    -0.02   0.03  -0.01     0.08  -0.15  -0.02     0.06  -0.09  -0.01
  16   8    -0.01   0.02   0.00     0.07  -0.09  -0.02    -0.04   0.05   0.01
  17  16     0.18  -0.59  -0.21     0.03  -0.03  -0.01    -0.02   0.02  -0.01
  18   8    -0.30   0.60   0.13    -0.03   0.05   0.01     0.02  -0.03  -0.00
  19   8     0.12   0.18  -0.05    -0.00  -0.01   0.00    -0.00  -0.00   0.00
  20   8    -0.08   0.03   0.21    -0.01   0.00   0.01    -0.00   0.00   0.01
  21  19     0.00   0.01   0.01     0.00   0.00   0.00     0.00  -0.00  -0.00
                     43                     44                     45
                        a                      a                      a 
 Frequencies --  1282.1733              1302.9273              1353.5946
 Red. masses --    10.1520                 7.7881                11.9398
 Frc consts  --     0.0000                 0.0000                 0.0000
 IR Inten    --   112.3895                44.4582                 9.2291
 Raman Activ --     0.0000                 0.0000                 0.0000
 Depolar     --     0.0000                 0.0000                 0.0000
 Atom AN      X      Y      Z        X      Y      Z        X      Y      Z
   1   6    -0.10   0.06   0.03    -0.13  -0.21   0.05     0.26   0.07  -0.08
   2   6     0.04   0.13  -0.02    -0.09   0.15   0.02    -0.27   0.12   0.07
   3   6     0.16  -0.01  -0.04    -0.05   0.12   0.01    -0.09  -0.23   0.04
   4   6    -0.09  -0.06   0.03     0.28   0.01  -0.08     0.29   0.13  -0.09
   5   6    -0.19  -0.31   0.07     0.08   0.15  -0.03    -0.13   0.40   0.02
   6   6    -0.20  -0.14   0.06    -0.28   0.09   0.08     0.20  -0.34  -0.04
   7   7    -0.24   0.41   0.04    -0.21  -0.12   0.06    -0.34  -0.09   0.10
   8   6     0.44  -0.18  -0.12    -0.05  -0.09   0.02     0.28   0.04  -0.09
   9   6     0.08  -0.18  -0.01     0.43   0.11  -0.12    -0.26  -0.05   0.07
  10   1     0.15   0.11  -0.05     0.14   0.02  -0.04     0.04  -0.00  -0.01
  11   1     0.19  -0.10  -0.05     0.33  -0.24  -0.08    -0.02  -0.01   0.01
  12   1     0.06   0.18  -0.03    -0.04  -0.37   0.03    -0.03  -0.09   0.01
  13   1     0.04   0.00  -0.01    -0.15  -0.10   0.05    -0.01   0.00   0.00
  14   1     0.13   0.14  -0.02     0.07  -0.02  -0.02     0.11   0.00  -0.04
  15   1    -0.01   0.23  -0.00     0.05  -0.15  -0.02     0.07   0.04  -0.01
  16   8    -0.03   0.07   0.01    -0.05   0.03   0.01     0.03  -0.02  -0.01
  17  16    -0.02  -0.02  -0.01    -0.01   0.01  -0.01     0.00  -0.01  -0.00
  18   8     0.00  -0.00   0.00     0.01  -0.01  -0.00    -0.00   0.00   0.00
  19   8     0.01   0.02  -0.00     0.00   0.00   0.00     0.00   0.00  -0.00
  20   8     0.00   0.00   0.01    -0.00   0.00   0.01     0.00   0.00   0.00
  21  19     0.00   0.00   0.00    -0.00  -0.00  -0.00     0.00   0.00   0.00
                     46                     47                     48
                        a                      a                      a 
 Frequencies --  1365.5400              1405.8348              1490.9633
 Red. masses --    10.7153                 9.4453                10.6592
 Frc consts  --     0.0000                 0.0000                 0.0000
 IR Inten    --     8.9560                16.1771                27.6279
 Raman Activ --     0.0000                 0.0000                 0.0000
 Depolar     --     0.0000                 0.0000                 0.0000
 Atom AN      X      Y      Z        X      Y      Z        X      Y      Z
   1   6    -0.13  -0.05   0.04     0.40   0.14  -0.12     0.18  -0.18  -0.04
   2   6     0.20  -0.30  -0.04    -0.12  -0.15   0.04    -0.41   0.10   0.11
   3   6    -0.07   0.42  -0.00    -0.18  -0.02   0.05     0.22   0.32  -0.08
   4   6    -0.04  -0.09   0.01     0.30   0.24  -0.09    -0.03  -0.25   0.02
   5   6     0.26  -0.02  -0.06    -0.02  -0.41   0.02    -0.33  -0.09   0.09
   6   6     0.19   0.27  -0.06    -0.25   0.15   0.06     0.30   0.24  -0.10
   7   7    -0.39  -0.03   0.11     0.02   0.16  -0.02     0.16   0.08  -0.05
   8   6     0.24   0.06  -0.08     0.03  -0.19   0.01     0.00  -0.13   0.01
   9   6    -0.23  -0.19   0.06     0.01   0.15  -0.00    -0.20   0.09   0.05
  10   1    -0.10  -0.05   0.03    -0.27  -0.13   0.08     0.02  -0.07  -0.00
  11   1    -0.10   0.04   0.03    -0.17   0.06   0.04     0.15  -0.18  -0.03
  12   1    -0.04  -0.20   0.02    -0.06  -0.10   0.02     0.04  -0.22  -0.00
  13   1    -0.13  -0.08   0.04    -0.26  -0.09   0.08     0.05  -0.05  -0.01
  14   1     0.21   0.03  -0.07     0.03   0.04   0.00    -0.08   0.01   0.02
  15   1     0.07   0.02   0.00    -0.06   0.07   0.00    -0.05   0.04   0.01
  16   8     0.03   0.01  -0.00     0.03  -0.03  -0.01     0.03  -0.03  -0.01
  17  16    -0.00  -0.01  -0.01     0.00   0.00   0.00     0.01  -0.00   0.00
  18   8     0.00   0.00   0.00    -0.00   0.00  -0.00    -0.00   0.00  -0.00
  19   8     0.00   0.01  -0.00    -0.00  -0.00  -0.00    -0.00  -0.00  -0.00
  20   8    -0.00   0.00   0.01     0.00  -0.00  -0.00     0.00  -0.00  -0.00
  21  19    -0.00  -0.00  -0.00    -0.00   0.00   0.00    -0.00   0.00  -0.00
                     49                     50                     51
                        a                      a                      a 
 Frequencies --  1532.6557              1571.7330              1609.2971
 Red. masses --    11.8063                11.6185                11.6999
 Frc consts  --     0.0000                 0.0000                 0.0000
 IR Inten    --    17.7139                 2.0850                27.0945
 Raman Activ --     0.0000                 0.0000                 0.0000
 Depolar     --     0.0000                 0.0000                 0.0000
 Atom AN      X      Y      Z        X      Y      Z        X      Y      Z
   1   6     0.11  -0.03  -0.03     0.03   0.25  -0.02     0.42   0.16  -0.13
   2   6    -0.10   0.04   0.02     0.22  -0.31  -0.04    -0.29   0.04   0.08
   3   6    -0.01  -0.04   0.00    -0.02   0.46  -0.02     0.16   0.17  -0.06
   4   6     0.14   0.03  -0.04     0.12  -0.22  -0.02    -0.42  -0.17   0.12
   5   6    -0.20  -0.13   0.06    -0.39   0.21   0.10     0.44   0.05  -0.12
   6   6    -0.09   0.15   0.02    -0.14  -0.45   0.06    -0.30  -0.21   0.09
   7   7     0.14  -0.03  -0.03     0.13   0.03  -0.04    -0.09  -0.06   0.03
   8   6    -0.04   0.59  -0.02    -0.01   0.03   0.00    -0.02   0.10  -0.00
   9   6     0.11  -0.66  -0.00     0.13   0.03  -0.04     0.08  -0.06  -0.02
  10   1    -0.03  -0.03   0.01    -0.05   0.04   0.01    -0.08  -0.05   0.03
  11   1     0.02  -0.02  -0.00    -0.09   0.04   0.02     0.02  -0.06  -0.00
  12   1    -0.00  -0.03   0.00    -0.02  -0.12   0.01     0.04  -0.04  -0.01
  13   1    -0.03  -0.03   0.01     0.02  -0.07  -0.00     0.08   0.04  -0.02
  14   1     0.03  -0.00  -0.01    -0.06   0.00   0.02     0.05  -0.01  -0.01
  15   1     0.13  -0.06  -0.02     0.01  -0.01  -0.00     0.02  -0.02  -0.00
  16   8    -0.07   0.11   0.03    -0.02   0.01   0.00    -0.01   0.01   0.00
  17  16    -0.01  -0.00  -0.01    -0.00   0.00   0.00    -0.00   0.00  -0.00
  18   8     0.00  -0.00   0.00    -0.00  -0.00  -0.00    -0.00  -0.00  -0.00
  19   8     0.00   0.00   0.00     0.00  -0.00   0.00    -0.00  -0.00   0.00
  20   8    -0.00   0.00   0.00    -0.00  -0.00  -0.00    -0.00   0.00  -0.00
  21  19     0.00  -0.00   0.00     0.00  -0.00   0.00     0.00   0.00   0.00
                     52                     53                     54
                        a                      a                      a 
 Frequencies --  3079.3351              3092.2400              3098.0360
 Red. masses --     1.7904                 1.7979                 1.8424
 Frc consts  --     0.0000                 0.0000                 0.0000
 IR Inten    --    62.9786                39.2064                72.7028
 Raman Activ --     0.0000                 0.0000                 0.0000
 Depolar     --     0.0000                 0.0000                 0.0000
 Atom AN      X      Y      Z        X      Y      Z        X      Y      Z
   1   6     0.10  -0.23  -0.02     0.03  -0.08  -0.01    -0.03   0.06   0.00
   2   6     0.06   0.08  -0.02    -0.10  -0.14   0.04     0.09   0.12  -0.03
   3   6    -0.00   0.00   0.00     0.16  -0.01  -0.04     0.08  -0.01  -0.02
   4   6    -0.00  -0.00   0.00    -0.03   0.07   0.00    -0.08   0.19   0.01
   5   6    -0.00   0.00   0.00    -0.00   0.00  -0.00     0.00   0.01  -0.00
   6   6     0.01  -0.00  -0.00     0.00   0.00  -0.00    -0.00  -0.00   0.00
   7   7    -0.00   0.00   0.00     0.00  -0.00  -0.00     0.00  -0.00   0.00
   8   6     0.00   0.00  -0.00     0.00   0.00  -0.00    -0.00  -0.00   0.00
   9   6     0.00   0.00  -0.00     0.00  -0.00  -0.00    -0.00   0.00   0.00
  10   1    -0.36   0.81   0.06    -0.11   0.26   0.02     0.08  -0.19  -0.01
  11   1    -0.22  -0.30   0.08     0.36   0.50  -0.13    -0.30  -0.41   0.11
  12   1     0.03  -0.00  -0.01    -0.58   0.05   0.16    -0.28   0.03   0.08
  13   1    -0.00   0.00   0.00     0.12  -0.26  -0.02     0.30  -0.67  -0.05
  14   1    -0.00  -0.00   0.00    -0.00  -0.00   0.00    -0.00   0.00  -0.00
  15   1    -0.01  -0.00   0.00    -0.01  -0.01   0.01     0.01   0.00  -0.00
  16   8    -0.00   0.00  -0.00    -0.00   0.00  -0.00     0.00  -0.00   0.00
  17  16    -0.00  -0.00   0.00     0.00  -0.00   0.00     0.00   0.00  -0.00
  18   8     0.00  -0.00  -0.00    -0.00   0.00  -0.00    -0.00  -0.00   0.00
  19   8     0.00  -0.00  -0.00    -0.00  -0.00  -0.00    -0.00   0.00  -0.00
  20   8     0.00  -0.00  -0.00     0.00   0.00  -0.00    -0.00  -0.00   0.00
  21  19     0.00   0.00   0.00    -0.00   0.00  -0.00    -0.00  -0.00  -0.00
                     55                     56                     57
                        a                      a                      a 
 Frequencies --  3102.1203              3108.3211              3402.8750
 Red. masses --     1.8770                 1.9121                 1.8968
 Frc consts  --     0.0000                 0.0000                 0.0000
 IR Inten    --     5.8538                57.6005               263.8601
 Raman Activ --     0.0000                 0.0000                 0.0000
 Depolar     --     0.0000                 0.0000                 0.0000
 Atom AN      X      Y      Z        X      Y      Z        X      Y      Z
   1   6    -0.00   0.00  -0.00     0.02  -0.03  -0.00     0.00  -0.00  -0.00
   2   6     0.00   0.00  -0.00    -0.06  -0.09   0.02    -0.00   0.00   0.00
   3   6    -0.00  -0.00   0.00    -0.20   0.02   0.05    -0.00  -0.00   0.00
   4   6    -0.00   0.00  -0.00    -0.07   0.15   0.01     0.00   0.00  -0.00
   5   6    -0.00  -0.00   0.00     0.01   0.00  -0.00     0.00  -0.00  -0.00
   6   6    -0.00  -0.00   0.00     0.00  -0.00  -0.00    -0.00   0.00   0.00
   7   7     0.00   0.00  -0.00    -0.00  -0.00   0.00     0.03  -0.26   0.02
   8   6     0.23   0.14  -0.09    -0.00  -0.00   0.00    -0.01  -0.01   0.00
   9   6     0.01  -0.01  -0.00     0.00  -0.00  -0.00     0.00   0.00  -0.00
  10   1     0.01  -0.01  -0.00    -0.05   0.11   0.01    -0.00   0.00   0.00
  11   1    -0.00  -0.00   0.00     0.20   0.28  -0.07     0.00   0.00  -0.00
  12   1     0.02  -0.00  -0.00     0.66  -0.06  -0.18     0.00   0.00  -0.00
  13   1     0.00  -0.01  -0.00     0.22  -0.50  -0.04    -0.00   0.00   0.00
  14   1    -0.00   0.02  -0.00    -0.00  -0.00   0.00    -0.13   0.95  -0.08
  15   1    -0.79  -0.45   0.31     0.01   0.01  -0.00     0.01   0.01  -0.00
  16   8    -0.00   0.00   0.00    -0.00   0.00  -0.00    -0.00   0.00  -0.00
  17  16    -0.00   0.00  -0.00     0.00  -0.00   0.00     0.00  -0.00   0.00
  18   8     0.00  -0.00   0.00    -0.00   0.00  -0.00    -0.00   0.00  -0.00
  19   8     0.00  -0.00   0.00    -0.00   0.00  -0.00    -0.00   0.00  -0.00
  20   8    -0.00  -0.00   0.00    -0.00   0.00  -0.00    -0.00   0.00  -0.00
  21  19    -0.00  -0.00  -0.00    -0.00  -0.00   0.00     0.00  -0.00   0.00
