      -----------------------------------------------------------      
     |                   =====================                   |     
     |                           x T B                           |     
     |                   =====================                   |     
     |                         S. Grimme                         |     
     |          Mulliken Center for Theoretical Chemistry        |     
     |                    University of Bonn                     |     
      -----------------------------------------------------------      

   * xtb version 6.4.1 (1a3296197974bf90c4de5929bcb902c290d06ae5) compiled by 'salvador@Linux' on 07/07/2022

   xtb is free software: you can redistribute it and/or modify it under
   the terms of the GNU Lesser General Public License as published by
   the Free Software Foundation, either version 3 of the License, or
   (at your option) any later version.
   
   xtb is distributed in the hope that it will be useful,
   but WITHOUT ANY WARRANTY; without even the implied warranty of
   MERCHANTABILITY or FITNESS FOR A PARTICULAR PURPOSE.  See the
   GNU Lesser General Public License for more details.
   
   Cite this work as:
   * C. Bannwarth, E. Caldeweyher, S. Ehlert, A. Hansen, P. Pracht,
     J. Seibert, S. Spicher, S. Grimme, WIREs Comput. Mol. Sci., 2020, 11,
     e01493. DOI: 10.1002/wcms.1493
   
   for GFN2-xTB:
   * C. Bannwarth, S. Ehlert and S. Grimme., J. Chem. Theory Comput., 2019,
     15, 1652-1671. DOI: 10.1021/acs.jctc.8b01176
   for GFN1-xTB:
   * S. Grimme, C. Bannwarth, P. Shushkov, J. Chem. Theory Comput., 2017,
     13, 1989-2009. DOI: 10.1021/acs.jctc.7b00118
   for GFN0-xTB:
   * P. Pracht, E. Caldeweyher, S. Ehlert, S. Grimme, ChemRxiv, 2019, preprint.
     DOI: 10.26434/chemrxiv.8326202.v1
   for GFN-FF:
   * S. Spicher and S. Grimme, Angew. Chem. Int. Ed., 2020, 59, 15665-15673.
     DOI: 10.1002/anie.202004239
   
   for ALPB and GBSA implicit solvation:
   * S. Ehlert, M. Stahn, S. Spicher, S. Grimme, J. Chem. Theory Comput.,
     2021, 17, 4250-4261. DOI: 10.1021/acs.jctc.1c00471
   
   for DFT-D4:
   * E. Caldeweyher, C. Bannwarth and S. Grimme, J. Chem. Phys., 2017,
     147, 034112. DOI: 10.1063/1.4993215
   * E. Caldeweyher, S. Ehlert, A. Hansen, H. Neugebauer, S. Spicher,
     C. Bannwarth and S. Grimme, J. Chem. Phys., 2019, 150, 154122.
     DOI: 10.1063/1.5090222
   * E. Caldeweyher, J.-M. Mewes, S. Ehlert and S. Grimme, Phys. Chem. Chem. Phys.
     2020, 22, 8499-8512. DOI: 10.1039/D0CP00502A
   
   for sTDA-xTB:
   * S. Grimme and C. Bannwarth, J. Chem. Phys., 2016, 145, 054103.
     DOI: 10.1063/1.4959605
   
   in the mass-spec context:
   * V. Asgeirsson, C. Bauer and S. Grimme, Chem. Sci., 2017, 8, 4879.
     DOI: 10.1039/c7sc00601b
   * J. Koopman and S. Grimme, ACS Omega 2019, 4, 12, 15120-15133.
     DOI: 10.1021/acsomega.9b02011
   
   for metadynamics refer to:
   * S. Grimme, J. Chem. Theory Comput., 2019, 155, 2847-2862
     DOI: 10.1021/acs.jctc.9b00143
   
   for SPH calculations refer to:
   * S. Spicher and S. Grimme, J. Chem. Theory Comput., 2021, 17, 1701-1714
     DOI: 10.1021/acs.jctc.0c01306
   
   with help from (in alphabetical order)
   P. Atkinson, C. Bannwarth, F. Bohle, G. Brandenburg, E. Caldeweyher
   M. Checinski, S. Dohm, S. Ehlert, S. Ehrlich, I. Gerasimov, J. Koopman
   C. Lavigne, S. Lehtola, F. März, M. Müller, F. Musil, H. Neugebauer
   J. Pisarek, C. Plett, P. Pracht, J. Seibert, P. Shushkov, S. Spicher
   M. Stahn, M. Steiner, T. Strunk, J. Stückrath, T. Rose, and J. Unsleber
   
 * started run on 2022/09/13 at 14:12:49.193     

           -------------------------------------------------
          |                Calculation Setup                |
           -------------------------------------------------

          program call               : xtb crest_best.xyz --charge 0 --ohess extreme --alpb water
          coordinate file            : crest_best.xyz
          number of atoms            :                    21
          number of electrons        :                    74
          charge                     :                     0
          spin                       :                   0.0
          first test random number   :      0.12808271164753

   ID    Z sym.   atoms
    1    6 C      1-6, 8, 9
    2    7 N      7
    3    1 H      10-15
    4    8 O      16, 18-20
    5   16 S      17
    6   19 K      21

           -------------------------------------------------
          |                 G F N 2 - x T B                 |
           -------------------------------------------------

        Reference                      10.1021/acs.jctc.8b01176
      * Hamiltonian:
        H0-scaling (s, p, d)           1.850000    2.230000    2.230000
        zeta-weighting                 0.500000
      * Dispersion:
        s8                             2.700000
        a1                             0.520000
        a2                             5.000000
        s9                             5.000000
      * Repulsion:
        kExp                           1.500000    1.000000
        rExp                           1.000000
      * Coulomb:
        alpha                          2.000000
        third order                    shell-resolved
        anisotropic                    true
        a3                             3.000000
        a5                             4.000000
        cn-shift                       1.200000
        cn-exp                         4.000000
        max-rad                        5.000000

      * Solvation model:               ALPB
        Solvent                        water
        Parameter file                 internal GFN2-xTB/ALPB
        Dielectric constant                8.0200E+01
        Reference state                gsolv [1 M gas/solution]
        Free energy shift                  1.0808E-03 Eh       6.7819E-01 kcal/mol
        Temperature                        2.9815E+02 K
        Density                            1.0000E+00 kg/L
        Solvent mass                       1.8000E+01 g/mol
        Interaction kernel             P16
        Born radius scaling (c1)           1.4744E+00
        Born radii integrator          GBOBC
        Born offset                        0.0000E+00 a0       0.0000E+00 AA
        H-bond correction              true
        Ion screening                  false
        Surface tension                    1.0000E-05 Eh       1.5569E+01 dyn/cm
        Grid points                               230 per atom

          ...................................................
          :                      SETUP                      :
          :.................................................:
          :  # basis functions                  72          :
          :  # atomic orbitals                  71          :
          :  # shells                           37          :
          :  # electrons                        74          :
          :  max. iterations                   250          :
          :  Hamiltonian                  GFN2-xTB          :
          :  restarted?                      false          :
          :  GBSA solvation                   true          :
          :  PC potential                    false          :
          :  electronic temp.          300.0000000     K    :
          :  accuracy                    1.0000000          :
          :  -> integral cutoff          0.2500000E+02      :
          :  -> integral neglect         0.1000000E-07      :
          :  -> SCF convergence          0.1000000E-05 Eh   :
          :  -> wf. convergence          0.1000000E-03 e    :
          :  Broyden damping             0.4000000          :
          ...................................................

 iter      E             dE          RMSdq      gap      omega  full diag
   1    -43.4461257 -0.434461E+02  0.866E+00    0.30       0.0  T
   2    -43.4994971 -0.533713E-01  0.532E+00    0.68       1.0  T
   3    -43.4870779  0.124192E-01  0.171E+00    0.92       1.0  T
   4    -43.5122635 -0.251856E-01  0.561E-01    0.81       1.0  T
   5    -43.5147164 -0.245293E-02  0.373E-01    0.79       1.0  T
   6    -43.5151060 -0.389636E-03  0.211E-01    0.76       1.0  T
   7    -43.5153524 -0.246397E-03  0.122E-01    0.74       1.0  T
   8    -43.5153874 -0.349653E-04  0.873E-02    0.73       1.0  T
   9    -43.5154174 -0.299780E-04  0.263E-02    0.73       1.0  T
  10    -43.5154202 -0.285636E-05  0.740E-03    0.72       2.9  T
  11    -43.5154205 -0.269141E-06  0.274E-03    0.72       8.0  T
  12    -43.5154205 -0.267350E-07  0.941E-04    0.72      23.2  T
  13    -43.5154205 -0.726506E-08  0.436E-04    0.72      50.0  T

   *** convergence criteria satisfied after 13 iterations ***

         #    Occupation            Energy/Eh            Energy/eV
      -------------------------------------------------------------
         1        2.0000           -0.7956838             -21.6517
       ...           ...                  ...                  ...
        31        2.0000           -0.4633582             -12.6086
        32        2.0000           -0.4631046             -12.6017
        33        2.0000           -0.4376317             -11.9086
        34        2.0000           -0.4266828             -11.6106
        35        2.0000           -0.4257412             -11.5850
        36        2.0000           -0.3961674             -10.7803
        37        2.0000           -0.3762689             -10.2388 (HOMO)
        38        0.0000           -0.3496842              -9.5154 (LUMO)
        39                         -0.2440970              -6.6422
        40                         -0.2088799              -5.6839
        41                         -0.1733249              -4.7164
        42                         -0.1290232              -3.5109
       ...                                ...                  ...
        71                          1.2090680              32.9004
      -------------------------------------------------------------
                  HL-Gap            0.0265847 Eh            0.7234 eV
             Fermi-level           -0.3629765 Eh           -9.8771 eV

 SCC (total)                   0 d,  0 h,  0 min,  0.032 sec
 SCC setup                      ...        0 min,  0.000 sec (  1.359%)
 Dispersion                     ...        0 min,  0.000 sec (  0.355%)
 classical contributions        ...        0 min,  0.000 sec (  0.091%)
 integral evaluation            ...        0 min,  0.004 sec ( 12.943%)
 iterations                     ...        0 min,  0.017 sec ( 53.729%)
 molecular gradient             ...        0 min,  0.010 sec ( 31.195%)
 printout                       ...        0 min,  0.000 sec (  0.300%)

         :::::::::::::::::::::::::::::::::::::::::::::::::::::
         ::                     SUMMARY                     ::
         :::::::::::::::::::::::::::::::::::::::::::::::::::::
         :: total energy             -43.021990334809 Eh    ::
         :: total w/o Gsasa/hb       -43.010814739335 Eh    ::
         :: gradient norm              0.000142847801 Eh/a0 ::
         :: HOMO-LUMO gap              0.723406533861 eV    ::
         ::.................................................::
         :: SCC energy               -43.515420538672 Eh    ::
         :: -> isotropic ES            0.222158727915 Eh    ::
         :: -> anisotropic ES         -0.055567829165 Eh    ::
         :: -> anisotropic XC          0.006904209051 Eh    ::
         :: -> dispersion             -0.024845518225 Eh    ::
         :: -> Gsolv                  -0.067314511643 Eh    ::
         ::    -> Gelec               -0.056138916169 Eh    ::
         ::    -> Gsasa               -0.004601544218 Eh    ::
         ::    -> Ghb                 -0.007654810955 Eh    ::
         ::    -> Gshift               0.001080759698 Eh    ::
         :: repulsion energy           0.493435917037 Eh    ::
         :: add. restraining           0.000000000000 Eh    ::
         :: total charge              -0.000000000000 e     ::
         :::::::::::::::::::::::::::::::::::::::::::::::::::::

      ----------------------------------------------------------- 
     |                   =====================                   |
     |                        A N C O P T                        |
     |                   =====================                   |
     |               Approximate Normal Coordinate               |
     |                Rational Function Optimizer                |
      ----------------------------------------------------------- 

          ...................................................
          :                      SETUP                      :
          :.................................................:
          :   optimization level           extreme          :
          :   max. optcycles                   420          :
          :   ANC micro-cycles                  20          :
          :   degrees of freedom                57          :
          :.................................................:
          :   RF solver                   davidson          :
          :   write xtbopt.log                true          :
          :   linear?                        false          :
          :   energy convergence         0.5000000E-07 Eh   :
          :   grad. convergence          0.5000000E-04 Eh/α :
          :   maximium RF displ.         1.0000000          :
          :   Hlow (freq-cutoff)         0.1000000E-01      :
          :   Hmax (freq-cutoff)         5.0000000          :
          :   S6 in model hess.         20.0000000          :
          ...................................................

generating ANC from model Hessian ...
Using Lindh-Hessian (1995)
 Shifting diagonal of input Hessian by    8.7815785951003908E-003
 Lowest  eigenvalues of input Hessian
    0.000000    0.000000    0.000000    0.000000    0.000000    0.000000
    0.010000    0.012066    0.012300    0.017293    0.017896    0.022205
    0.027090    0.031911    0.036253    0.040775    0.062291    0.069088
 Highest eigenvalues
    2.048346    2.097672    2.199758    2.667094    3.350408    3.668785


........................................................................
.............................. CYCLE    1 ..............................
........................................................................
   1    -43.5154205 -0.435154E+02  0.197E-04    0.72       0.0  T
   2    -43.5154205 -0.863380E-10  0.120E-04    0.72     182.2  T
   3    -43.5154205 -0.169180E-10  0.827E-05    0.72     264.0  T
     SCC iter.                  ...        0 min,  0.004 sec
     gradient                   ...        0 min,  0.010 sec
 * total energy  :   -43.0219903 Eh     change       -0.5027943E-09 Eh
   gradient norm :     0.0001407 Eh/α   predicted     0.0000000E+00 (-100.00%)
   displ. norm   :     0.0036356 α      lambda       -0.2555476E-07
   maximum displ.:     0.0024580 α      in ANC's #4, #1, #14, ...

........................................................................
.............................. CYCLE    2 ..............................
........................................................................
   1    -43.5154553 -0.435155E+02  0.625E-03    0.72       0.0  T
   2    -43.5154553 -0.412314E-08  0.259E-03    0.72       8.4  T
   3    -43.5154553  0.192996E-08  0.652E-04    0.72      33.4  T
   4    -43.5154553 -0.284760E-08  0.344E-04    0.72      63.3  T
     SCC iter.                  ...        0 min,  0.005 sec
     gradient                   ...        0 min,  0.010 sec
 * total energy  :   -43.0219905 Eh     change       -0.2020049E-06 Eh
   gradient norm :     0.0000696 Eh/α   predicted    -0.9564681E-07 ( -52.65%)
   displ. norm   :     0.0053196 α      lambda       -0.1140153E-06
   maximum displ.:     0.0035417 α      in ANC's #4, #1, #2, ...

........................................................................
.............................. CYCLE    3 ..............................
........................................................................
   1    -43.5154602 -0.435155E+02  0.875E-03    0.72       0.0  T
   2    -43.5154602 -0.362495E-08  0.362E-03    0.72       6.0  T
   3    -43.5154602  0.409727E-09  0.729E-04    0.72      29.9  T
   4    -43.5154602  0.414296E-09  0.419E-04    0.72      52.0  T
     SCC iter.                  ...        0 min,  0.005 sec
     gradient                   ...        0 min,  0.010 sec
 * total energy  :   -43.0219907 Eh     change       -0.1197550E-06 Eh
   gradient norm :     0.0000766 Eh/α   predicted    -0.5713594E-07 ( -52.29%)
   displ. norm   :     0.0061917 α      lambda       -0.8106504E-07
   maximum displ.:     0.0045187 α      in ANC's #1, #4, #2, ...

........................................................................
.............................. CYCLE    4 ..............................
........................................................................
   1    -43.5154614 -0.435155E+02  0.906E-03    0.72       0.0  T
   2    -43.5154614 -0.336924E-08  0.390E-03    0.72       5.6  T
   3    -43.5154614 -0.403510E-09  0.763E-04    0.72      28.6  T
   4    -43.5154614  0.269459E-09  0.174E-04    0.72     125.3  T
     SCC iter.                  ...        0 min,  0.005 sec
     gradient                   ...        0 min,  0.010 sec
 * total energy  :   -43.0219908 Eh     change       -0.9665762E-07 Eh
   gradient norm :     0.0000746 Eh/α   predicted    -0.4099540E-07 ( -57.59%)
   displ. norm   :     0.0063381 α      lambda       -0.6873475E-07
   maximum displ.:     0.0052553 α      in ANC's #1, #4, #2, ...

........................................................................
.............................. CYCLE    5 ..............................
........................................................................
   1    -43.5154569 -0.435155E+02  0.758E-03    0.72       0.0  T
   2    -43.5154569 -0.295535E-08  0.359E-03    0.72       6.1  T
   3    -43.5154570 -0.401883E-09  0.661E-04    0.72      33.0  T
   4    -43.5154570 -0.289262E-10  0.980E-05    0.72     222.7  T
     SCC iter.                  ...        0 min,  0.005 sec
     gradient                   ...        0 min,  0.010 sec
 * total energy  :   -43.0219908 Eh     change       -0.9516202E-07 Eh
   gradient norm :     0.0000645 Eh/α   predicted    -0.3783632E-07 ( -60.24%)
   displ. norm   :     0.0055162 α      lambda       -0.6220981E-07
   maximum displ.:     0.0050976 α      in ANC's #1, #3, #2, ...

........................................................................
.............................. CYCLE    6 ..............................
........................................................................
   1    -43.5154493 -0.435154E+02  0.531E-03    0.72       0.0  T
   2    -43.5154493 -0.199913E-08  0.285E-03    0.72       7.7  T
   3    -43.5154493 -0.209972E-09  0.254E-04    0.72      85.9  T
   4    -43.5154493 -0.405436E-10  0.102E-04    0.72     213.6  T
     SCC iter.                  ...        0 min,  0.005 sec
     gradient                   ...        0 min,  0.010 sec
 * total energy  :   -43.0219909 Eh     change       -0.9223749E-07 Eh
   gradient norm :     0.0000623 Eh/α   predicted    -0.3296279E-07 ( -64.26%)
   displ. norm   :     0.0052958 α      lambda       -0.6869180E-07
   maximum displ.:     0.0049796 α      in ANC's #1, #6, #10, ...

........................................................................
.............................. CYCLE    7 ..............................
........................................................................
   1    -43.5154447 -0.435154E+02  0.546E-03    0.72       0.0  T
   2    -43.5154447 -0.181827E-08  0.280E-03    0.72       7.8  T
   3    -43.5154447 -0.154046E-09  0.454E-04    0.72      48.1  T
   4    -43.5154447  0.204679E-09  0.173E-04    0.72     126.3  T
     SCC iter.                  ...        0 min,  0.005 sec
     gradient                   ...        0 min,  0.010 sec
 * total energy  :   -43.0219910 Eh     change       -0.1030129E-06 Eh
   gradient norm :     0.0000700 Eh/α   predicted    -0.3587357E-07 ( -65.18%)
   displ. norm   :     0.0073019 α      lambda       -0.1025782E-06
   maximum displ.:     0.0067736 α      in ANC's #1, #4, #6, ...

........................................................................
.............................. CYCLE    8 ..............................
........................................................................
   1    -43.5154408 -0.435154E+02  0.833E-03    0.72       0.0  T
   2    -43.5154408 -0.324985E-08  0.396E-03    0.72       5.5  T
   3    -43.5154408 -0.453873E-09  0.749E-04    0.72      29.1  T
   4    -43.5154408  0.301334E-09  0.197E-04    0.72     110.5  T
     SCC iter.                  ...        0 min,  0.005 sec
     gradient                   ...        0 min,  0.010 sec
 * total energy  :   -43.0219912 Eh     change       -0.1548429E-06 Eh
   gradient norm :     0.0000948 Eh/α   predicted    -0.5395783E-07 ( -65.15%)
   displ. norm   :     0.0107210 α      lambda       -0.1523176E-06
   maximum displ.:     0.0099055 α      in ANC's #1, #4, #6, ...

........................................................................
.............................. CYCLE    9 ..............................
........................................................................
   1    -43.5154378 -0.435154E+02  0.120E-02    0.72       0.0  T
   2    -43.5154378 -0.618221E-08  0.565E-03    0.72       3.9  T
   3    -43.5154378 -0.100831E-08  0.107E-03    0.72      20.4  T
   4    -43.5154378  0.448082E-09  0.244E-04    0.72      89.5  T
   5    -43.5154378 -0.687528E-09  0.808E-05    0.72     270.1  T
     SCC iter.                  ...        0 min,  0.006 sec
     gradient                   ...        0 min,  0.010 sec
 * total energy  :   -43.0219914 Eh     change       -0.2355763E-06 Eh
   gradient norm :     0.0001357 Eh/α   predicted    -0.8096802E-07 ( -65.63%)
   displ. norm   :     0.0189331 α      lambda       -0.2831713E-06
   maximum displ.:     0.0176042 α      in ANC's #1, #4, #6, ...

........................................................................
.............................. CYCLE   10 ..............................
........................................................................
   1    -43.5154327 -0.435154E+02  0.199E-02    0.72       0.0  T
   2    -43.5154328 -0.172658E-07  0.960E-03    0.72       2.3  T
   3    -43.5154328 -0.308241E-08  0.175E-03    0.72      12.5  T
   4    -43.5154328  0.825167E-09  0.354E-04    0.72      61.6  T
   5    -43.5154328 -0.141564E-08  0.141E-04    0.72     154.8  T
     SCC iter.                  ...        0 min,  0.006 sec
     gradient                   ...        0 min,  0.010 sec
 * total energy  :   -43.0219919 Eh     change       -0.4243577E-06 Eh
   gradient norm :     0.0001926 Eh/α   predicted    -0.1419075E-06 ( -66.56%)
   displ. norm   :     0.0901772 α      lambda       -0.1342372E-05
   maximum displ.:     0.0843524 α      in ANC's #1, #4, #6, ...

........................................................................
.............................. CYCLE   11 ..............................
........................................................................
   1    -43.5153594 -0.435154E+02  0.920E-02    0.73       0.0  T
   2    -43.5153597 -0.379902E-06  0.450E-02    0.73       1.0  T
   3    -43.5153598 -0.725983E-07  0.788E-03    0.73       2.8  T
   4    -43.5153598  0.162644E-08  0.115E-03    0.73      19.1  T
   5    -43.5153598 -0.846455E-08  0.658E-04    0.73      33.2  T
   6    -43.5153598 -0.165790E-08  0.266E-04    0.73      82.0  T
     SCC iter.                  ...        0 min,  0.007 sec
     gradient                   ...        0 min,  0.010 sec
 * total energy  :   -43.0219939 Eh     change       -0.2034703E-05 Eh
   gradient norm :     0.0004644 Eh/α   predicted    -0.6745974E-06 ( -66.85%)
   displ. norm   :     1.2620869 α      lambda       -0.1863520E-04
   maximum displ.:     1.1828195 α      in ANC's #1, #4, #6, ...

........................................................................
.............................. CYCLE   12 ..............................
........................................................................
   1    -43.5043085 -0.435043E+02  0.127E+00    0.71       0.0  T
   2    -43.5044017 -0.932604E-04  0.616E-01    0.73       1.0  T
   3    -43.5044122 -0.104679E-04  0.114E-01    0.74       1.0  T
   4    -43.5044056  0.659712E-05  0.383E-02    0.74       1.0  T
   5    -43.5044190 -0.134107E-04  0.102E-02    0.74       2.1  T
   6    -43.5044192 -0.194119E-06  0.402E-03    0.74       5.4  T
   7    -43.5044192 -0.272916E-07  0.197E-03    0.74      11.1  T
   8    -43.5044192 -0.214461E-07  0.533E-04    0.74      40.9  T
   9    -43.5044192 -0.893195E-09  0.306E-04    0.74      71.3  T
     SCC iter.                  ...        0 min,  0.010 sec
     gradient                   ...        0 min,  0.010 sec
 * total energy  :   -43.0212943 Eh     change        0.6995736E-03 Eh
   gradient norm :     0.0254349 Eh/α   predicted    -0.1591842E-04 (-102.28%)
   displ. norm   :     0.4940943 α      lambda       -0.1238920E-02
   maximum displ.:     0.4612220 α      in ANC's #1, #6, #4, ...

........................................................................
.............................. CYCLE   13 ..............................
........................................................................
   1    -43.5124850 -0.435125E+02  0.504E-01    0.76       0.0  T
   2    -43.5125026 -0.175757E-04  0.242E-01    0.75       1.0  T
   3    -43.5125025  0.284230E-07  0.508E-02    0.74       1.0  T
   4    -43.5125005  0.204714E-05  0.255E-02    0.74       1.0  T
   5    -43.5125065 -0.599869E-05  0.480E-03    0.74       4.5  T
   6    -43.5125065 -0.283996E-07  0.210E-03    0.74      10.4  T
   7    -43.5125065 -0.187127E-07  0.907E-04    0.74      24.1  T
   8    -43.5125065 -0.324582E-08  0.350E-04    0.74      62.4  T
     SCC iter.                  ...        0 min,  0.009 sec
     gradient                   ...        0 min,  0.010 sec
 * total energy  :   -43.0219379 Eh     change       -0.6436175E-03 Eh
   gradient norm :     0.0075711 Eh/α   predicted    -0.7707010E-03 (  19.75%)
   displ. norm   :     0.0857522 α      lambda       -0.6505094E-04
   maximum displ.:     0.0797483 α      in ANC's #1, #6, #4, ...

........................................................................
.............................. CYCLE   14 ..............................
........................................................................
   1    -43.5139987 -0.435140E+02  0.924E-02    0.74       0.0  T
   2    -43.5139993 -0.563705E-06  0.450E-02    0.74       1.0  T
   3    -43.5139993 -0.579641E-07  0.880E-03    0.74       2.5  T
   4    -43.5139993  0.478060E-07  0.344E-03    0.74       6.3  T
   5    -43.5139994 -0.104906E-06  0.862E-04    0.74      25.3  T
   6    -43.5139994 -0.150783E-08  0.375E-04    0.74      58.1  T
     SCC iter.                  ...        0 min,  0.007 sec
     gradient                   ...        0 min,  0.010 sec
 * total energy  :   -43.0219845 Eh     change       -0.4659776E-04 Eh
   gradient norm :     0.0039543 Eh/α   predicted    -0.3277138E-04 ( -29.67%)
   displ. norm   :     0.0671635 α      lambda       -0.2647401E-04
   maximum displ.:     0.0619466 α      in ANC's #1, #4, #6, ...

........................................................................
.............................. CYCLE   15 ..............................
........................................................................
   1    -43.5150333 -0.435150E+02  0.770E-02    0.74       0.0  T
   2    -43.5150337 -0.355997E-06  0.361E-02    0.74       1.0  T
   3    -43.5150337 -0.484967E-07  0.772E-03    0.74       2.8  T
   4    -43.5150337  0.191837E-07  0.221E-03    0.74       9.9  T
   5    -43.5150337 -0.363399E-07  0.650E-04    0.74      33.6  T
   6    -43.5150337 -0.112396E-08  0.259E-04    0.74      84.2  T
     SCC iter.                  ...        0 min,  0.007 sec
     gradient                   ...        0 min,  0.010 sec
 * total energy  :   -43.0220003 Eh     change       -0.1578280E-04 Eh
   gradient norm :     0.0022188 Eh/α   predicted    -0.1329948E-04 ( -15.73%)
   displ. norm   :     0.0188582 α      lambda       -0.3818146E-05
   maximum displ.:     0.0158706 α      in ANC's #1, #4, #5, ...

........................................................................
.............................. CYCLE   16 ..............................
........................................................................
   1    -43.5152304 -0.435152E+02  0.270E-02    0.74       0.0  T
   2    -43.5152305 -0.395496E-07  0.112E-02    0.74       2.0  T
   3    -43.5152305 -0.438125E-08  0.256E-03    0.74       8.5  T
   4    -43.5152305  0.141540E-10  0.374E-04    0.74      58.4  T
   5    -43.5152305 -0.474579E-09  0.181E-04    0.74     120.6  T
     SCC iter.                  ...        0 min,  0.006 sec
     gradient                   ...        0 min,  0.010 sec
 * total energy  :   -43.0220035 Eh     change       -0.3133287E-05 Eh
   gradient norm :     0.0021459 Eh/α   predicted    -0.1914849E-05 ( -38.89%)
   displ. norm   :     0.0332822 α      lambda       -0.9212777E-05
   maximum displ.:     0.0226717 α      in ANC's #4, #1, #15, ...

........................................................................
.............................. CYCLE   17 ..............................
........................................................................
   1    -43.5154540 -0.435155E+02  0.601E-02    0.74       0.0  T
   2    -43.5154542 -0.195822E-06  0.225E-02    0.74       1.0  T
   3    -43.5154542 -0.110410E-07  0.446E-03    0.74       4.9  T
   4    -43.5154542  0.266543E-07  0.163E-03    0.74      13.4  T
   5    -43.5154542 -0.363884E-07  0.455E-04    0.74      47.9  T
   6    -43.5154542 -0.293589E-09  0.134E-04    0.74     162.7  T
     SCC iter.                  ...        0 min,  0.007 sec
     gradient                   ...        0 min,  0.010 sec
 * total energy  :   -43.0220103 Eh     change       -0.6819346E-05 Eh
   gradient norm :     0.0021238 Eh/α   predicted    -0.4615419E-05 ( -32.32%)
   displ. norm   :     0.0307480 α      lambda       -0.9868117E-05
   maximum displ.:     0.0276322 α      in ANC's #4, #15, #5, ...

........................................................................
.............................. CYCLE   18 ..............................
........................................................................
   1    -43.5154877 -0.435155E+02  0.675E-02    0.74       0.0  T
   2    -43.5154880 -0.239948E-06  0.239E-02    0.74       1.0  T
   3    -43.5154880 -0.340260E-08  0.334E-03    0.74       6.5  T
   4    -43.5154880  0.909829E-09  0.191E-03    0.74      11.5  T
   5    -43.5154880 -0.280435E-07  0.464E-04    0.74      47.0  T
   6    -43.5154880 -0.238025E-09  0.137E-04    0.74     159.3  T
     SCC iter.                  ...        0 min,  0.007 sec
     gradient                   ...        0 min,  0.010 sec
 * total energy  :   -43.0220175 Eh     change       -0.7261723E-05 Eh
   gradient norm :     0.0019286 Eh/α   predicted    -0.4940481E-05 ( -31.97%)
   displ. norm   :     0.0544885 α      lambda       -0.9296077E-05
   maximum displ.:     0.0411383 α      in ANC's #4, #1, #15, ...

........................................................................
.............................. CYCLE   19 ..............................
........................................................................
   1    -43.5152817 -0.435153E+02  0.104E-01    0.74       0.0  T
   2    -43.5152822 -0.495115E-06  0.380E-02    0.74       1.0  T
   3    -43.5152822  0.197732E-08  0.532E-03    0.74       4.1  T
   4    -43.5152822 -0.270575E-07  0.327E-03    0.74       6.7  T
   5    -43.5152823 -0.645989E-07  0.661E-04    0.74      33.0  T
   6    -43.5152823 -0.442050E-09  0.258E-04    0.74      84.5  T
     SCC iter.                  ...        0 min,  0.007 sec
     gradient                   ...        0 min,  0.010 sec
 * total energy  :   -43.0220255 Eh     change       -0.7922778E-05 Eh
   gradient norm :     0.0015372 Eh/α   predicted    -0.4657135E-05 ( -41.22%)
   displ. norm   :     0.0264829 α      lambda       -0.3646589E-05
   maximum displ.:     0.0255710 α      in ANC's #1, #3, #2, ...

........................................................................
.............................. CYCLE   20 ..............................
........................................................................
   1    -43.5152019 -0.435152E+02  0.217E-02    0.74       0.0  T
   2    -43.5152020 -0.314438E-07  0.118E-02    0.74       1.9  T
   3    -43.5152020 -0.568691E-08  0.131E-03    0.74      16.6  T
   4    -43.5152020 -0.640796E-09  0.452E-04    0.74      48.3  T
   5    -43.5152020 -0.618215E-09  0.211E-04    0.74     103.2  T
     SCC iter.                  ...        0 min,  0.006 sec
     gradient                   ...        0 min,  0.010 sec
 * total energy  :   -43.0220303 Eh     change       -0.4821911E-05 Eh
   gradient norm :     0.0011086 Eh/α   predicted    -0.1834242E-05 ( -61.96%)
   displ. norm   :     0.0355201 α      lambda       -0.4576713E-05
   maximum displ.:     0.0339128 α      in ANC's #1, #3, #5, ...
 * RMSD in coord.:     0.1754260 α      energy gain  -0.3994231E-04 Eh

generating ANC from model Hessian ...
Using Lindh-Hessian (1995)
 Shifting diagonal of input Hessian by    8.7932411251378882E-003
 Lowest  eigenvalues of input Hessian
    0.000000    0.000000    0.000000    0.000000    0.000000    0.000000
    0.010000    0.011988    0.012611    0.017282    0.017919    0.022160
    0.027073    0.031908    0.036159    0.041114    0.062238    0.069257
 Highest eigenvalues
    2.047732    2.096932    2.199580    2.662685    3.347822    3.666023


........................................................................
.............................. CYCLE   21 ..............................
........................................................................
   1    -43.5152160 -0.435152E+02  0.350E-02    0.73       0.0  T
   2    -43.5152160 -0.769237E-07  0.175E-02    0.73       1.2  T
   3    -43.5152160 -0.439710E-08  0.295E-03    0.73       7.4  T
   4    -43.5152160  0.884132E-08  0.127E-03    0.73      17.2  T
   5    -43.5152160 -0.185987E-07  0.368E-04    0.73      59.3  T
   6    -43.5152160 -0.339519E-09  0.167E-04    0.73     130.6  T
     SCC iter.                  ...        0 min,  0.007 sec
     gradient                   ...        0 min,  0.010 sec
 * total energy  :   -43.0220359 Eh     change       -0.5641357E-05 Eh
   gradient norm :     0.0006078 Eh/α   predicted     0.0000000E+00 (-100.00%)
   displ. norm   :     0.0196850 α      lambda       -0.1077740E-05
   maximum displ.:     0.0191611 α      in ANC's #1, #4, #14, ...

........................................................................
.............................. CYCLE   22 ..............................
........................................................................
   1    -43.5153171 -0.435153E+02  0.215E-02    0.73       0.0  T
   2    -43.5153171 -0.303476E-07  0.109E-02    0.73       2.0  T
   3    -43.5153171 -0.291418E-08  0.177E-03    0.73      12.3  T
   4    -43.5153171 -0.103313E-10  0.341E-04    0.73      64.0  T
   5    -43.5153171 -0.385882E-09  0.144E-04    0.73     151.0  T
     SCC iter.                  ...        0 min,  0.006 sec
     gradient                   ...        0 min,  0.010 sec
 * total energy  :   -43.0220390 Eh     change       -0.3062002E-05 Eh
   gradient norm :     0.0003377 Eh/α   predicted    -0.1103724E-05 ( -63.95%)
   displ. norm   :     0.0266575 α      lambda       -0.2594420E-05
   maximum displ.:     0.0249631 α      in ANC's #1, #4, #2, ...

........................................................................
.............................. CYCLE   23 ..............................
........................................................................
   1    -43.5153976 -0.435154E+02  0.322E-02    0.73       0.0  T
   2    -43.5153977 -0.747734E-07  0.162E-02    0.73       1.3  T
   3    -43.5153977 -0.619298E-08  0.265E-03    0.73       8.2  T
   4    -43.5153977 -0.303523E-09  0.376E-04    0.73      58.1  T
   5    -43.5153977 -0.336392E-09  0.205E-04    0.73     106.3  T
     SCC iter.                  ...        0 min,  0.006 sec
     gradient                   ...        0 min,  0.010 sec
 * total energy  :   -43.0220426 Eh     change       -0.3617920E-05 Eh
   gradient norm :     0.0002152 Eh/α   predicted    -0.1313203E-05 ( -63.70%)
   displ. norm   :     0.0325659 α      lambda       -0.2799183E-05
   maximum displ.:     0.0298864 α      in ANC's #1, #2, #4, ...

........................................................................
.............................. CYCLE   24 ..............................
........................................................................
   1    -43.5154449 -0.435154E+02  0.384E-02    0.73       0.0  T
   2    -43.5154450 -0.110988E-06  0.200E-02    0.73       1.1  T
   3    -43.5154450 -0.854250E-08  0.265E-03    0.73       8.2  T
   4    -43.5154450 -0.283826E-09  0.502E-04    0.73      43.4  T
   5    -43.5154450 -0.107579E-08  0.313E-04    0.73      69.7  T
     SCC iter.                  ...        0 min,  0.006 sec
     gradient                   ...        0 min,  0.010 sec
 * total energy  :   -43.0220466 Eh     change       -0.3969084E-05 Eh
   gradient norm :     0.0003739 Eh/α   predicted    -0.1400591E-05 ( -64.71%)
   displ. norm   :     0.0350590 α      lambda       -0.2859151E-05
   maximum displ.:     0.0317605 α      in ANC's #1, #2, #4, ...

........................................................................
.............................. CYCLE   25 ..............................
........................................................................
   1    -43.5154498 -0.435154E+02  0.401E-02    0.73       0.0  T
   2    -43.5154500 -0.116068E-06  0.214E-02    0.73       1.0  T
   3    -43.5154500 -0.882528E-08  0.207E-03    0.73      10.5  T
   4    -43.5154500 -0.672195E-09  0.558E-04    0.73      39.1  T
   5    -43.5154500 -0.195345E-08  0.328E-04    0.73      66.5  T
     SCC iter.                  ...        0 min,  0.006 sec
     gradient                   ...        0 min,  0.010 sec
 * total energy  :   -43.0220508 Eh     change       -0.4198294E-05 Eh
   gradient norm :     0.0004640 Eh/α   predicted    -0.1431210E-05 ( -65.91%)
   displ. norm   :     0.0414172 α      lambda       -0.3448687E-05
   maximum displ.:     0.0373122 α      in ANC's #1, #2, #5, ...

........................................................................
.............................. CYCLE   26 ..............................
........................................................................
   1    -43.5154121 -0.435154E+02  0.463E-02    0.73       0.0  T
   2    -43.5154122 -0.142507E-06  0.250E-02    0.73       1.0  T
   3    -43.5154122 -0.121212E-07  0.181E-03    0.73      12.0  T
   4    -43.5154122 -0.170172E-08  0.615E-04    0.73      35.5  T
   5    -43.5154122 -0.225629E-08  0.350E-04    0.73      62.3  T
     SCC iter.                  ...        0 min,  0.006 sec
     gradient                   ...        0 min,  0.010 sec
 * total energy  :   -43.0220565 Eh     change       -0.5751528E-05 Eh
   gradient norm :     0.0005166 Eh/α   predicted    -0.1726151E-05 ( -69.99%)
   displ. norm   :     0.0507900 α      lambda       -0.5141738E-05
   maximum displ.:     0.0453952 α      in ANC's #1, #2, #3, ...

........................................................................
.............................. CYCLE   27 ..............................
........................................................................
   1    -43.5153706 -0.435154E+02  0.579E-02    0.73       0.0  T
   2    -43.5153708 -0.214242E-06  0.312E-02    0.73       1.0  T
   3    -43.5153708 -0.179777E-07  0.234E-03    0.73       9.3  T
   4    -43.5153708 -0.221767E-08  0.796E-04    0.73      27.4  T
   5    -43.5153708 -0.449489E-08  0.443E-04    0.73      49.3  T
     SCC iter.                  ...        0 min,  0.006 sec
     gradient                   ...        0 min,  0.010 sec
 * total energy  :   -43.0220651 Eh     change       -0.8628326E-05 Eh
   gradient norm :     0.0006073 Eh/α   predicted    -0.2575005E-05 ( -70.16%)
   displ. norm   :     0.0620282 α      lambda       -0.7722101E-05
   maximum displ.:     0.0552537 α      in ANC's #1, #2, #3, ...

........................................................................
.............................. CYCLE   28 ..............................
........................................................................
   1    -43.5153158 -0.435153E+02  0.712E-02    0.73       0.0  T
   2    -43.5153161 -0.321072E-06  0.384E-02    0.73       1.0  T
   3    -43.5153161 -0.259841E-07  0.298E-03    0.73       7.3  T
   4    -43.5153161 -0.275630E-08  0.103E-03    0.73      21.2  T
   5    -43.5153161 -0.848807E-08  0.558E-04    0.73      39.1  T
   6    -43.5153161 -0.126727E-08  0.161E-04    0.73     135.2  T
     SCC iter.                  ...        0 min,  0.007 sec
     gradient                   ...        0 min,  0.010 sec
 * total energy  :   -43.0220780 Eh     change       -0.1286416E-04 Eh
   gradient norm :     0.0007370 Eh/α   predicted    -0.3869100E-05 ( -69.92%)
   displ. norm   :     0.0735709 α      lambda       -0.1102592E-04
   maximum displ.:     0.0655115 α      in ANC's #1, #2, #3, ...

........................................................................
.............................. CYCLE   29 ..............................
........................................................................
   1    -43.5152382 -0.435152E+02  0.848E-02    0.73       0.0  T
   2    -43.5152387 -0.448235E-06  0.456E-02    0.73       1.0  T
   3    -43.5152387 -0.355402E-07  0.362E-03    0.73       6.0  T
   4    -43.5152387 -0.273393E-08  0.128E-03    0.73      17.1  T
   5    -43.5152387 -0.141225E-07  0.678E-04    0.73      32.2  T
   6    -43.5152387 -0.190848E-08  0.186E-04    0.73     117.0  T
     SCC iter.                  ...        0 min,  0.007 sec
     gradient                   ...        0 min,  0.010 sec
 * total energy  :   -43.0220947 Eh     change       -0.1667650E-04 Eh
   gradient norm :     0.0009207 Eh/α   predicted    -0.5527782E-05 ( -66.85%)
   displ. norm   :     0.0720861 α      lambda       -0.1124830E-04
   maximum displ.:     0.0650558 α      in ANC's #1, #2, #3, ...

........................................................................
.............................. CYCLE   30 ..............................
........................................................................
   1    -43.5151720 -0.435152E+02  0.821E-02    0.73       0.0  T
   2    -43.5151724 -0.409508E-06  0.442E-02    0.73       1.0  T
   3    -43.5151724 -0.320170E-07  0.341E-03    0.73       6.4  T
   4    -43.5151724 -0.259134E-08  0.130E-03    0.73      16.8  T
   5    -43.5151724 -0.154461E-07  0.654E-04    0.73      33.4  T
   6    -43.5151724 -0.155394E-08  0.173E-04    0.73     126.3  T
     SCC iter.                  ...        0 min,  0.007 sec
     gradient                   ...        0 min,  0.010 sec
 * total energy  :   -43.0221115 Eh     change       -0.1677555E-04 Eh
   gradient norm :     0.0011296 Eh/α   predicted    -0.5637808E-05 ( -66.39%)
   displ. norm   :     0.0740618 α      lambda       -0.1299422E-04
   maximum displ.:     0.0652917 α      in ANC's #1, #2, #3, ...

........................................................................
.............................. CYCLE   31 ..............................
........................................................................
   1    -43.5152264 -0.435152E+02  0.846E-02    0.73       0.0  T
   2    -43.5152268 -0.364678E-06  0.457E-02    0.73       1.0  T
   3    -43.5152268 -0.319350E-07  0.317E-03    0.73       6.9  T
   4    -43.5152268 -0.289694E-08  0.145E-03    0.73      15.0  T
   5    -43.5152268 -0.201390E-07  0.616E-04    0.73      35.4  T
   6    -43.5152268 -0.690981E-09  0.139E-04    0.73     157.3  T
     SCC iter.                  ...        0 min,  0.007 sec
     gradient                   ...        0 min,  0.010 sec
 * total energy  :   -43.0221306 Eh     change       -0.1912627E-04 Eh
   gradient norm :     0.0011137 Eh/α   predicted    -0.6513414E-05 ( -65.95%)
   displ. norm   :     0.0899616 α      lambda       -0.1670455E-04
   maximum displ.:     0.0795350 α      in ANC's #1, #2, #3, ...

........................................................................
.............................. CYCLE   32 ..............................
........................................................................
   1    -43.5152537 -0.435153E+02  0.101E-01    0.73       0.0  T
   2    -43.5152542 -0.452485E-06  0.542E-02    0.73       1.0  T
   3    -43.5152542 -0.404381E-07  0.407E-03    0.73       5.4  T
   4    -43.5152542 -0.218322E-08  0.202E-03    0.73      10.8  T
   5    -43.5152543 -0.393299E-07  0.728E-04    0.73      30.0  T
   6    -43.5152543 -0.761354E-09  0.192E-04    0.73     113.6  T
     SCC iter.                  ...        0 min,  0.007 sec
     gradient                   ...        0 min,  0.010 sec
 * total energy  :   -43.0221550 Eh     change       -0.2439925E-04 Eh
   gradient norm :     0.0009905 Eh/α   predicted    -0.8382686E-05 ( -65.64%)
   displ. norm   :     0.1048747 α      lambda       -0.2007595E-04
   maximum displ.:     0.0946828 α      in ANC's #1, #2, #4, ...

........................................................................
.............................. CYCLE   33 ..............................
........................................................................
   1    -43.5152866 -0.435153E+02  0.114E-01    0.73       0.0  T
   2    -43.5152871 -0.529183E-06  0.606E-02    0.73       1.0  T
   3    -43.5152872 -0.443185E-07  0.533E-03    0.73       4.1  T
   4    -43.5152872  0.278099E-08  0.270E-03    0.73       8.1  T
   5    -43.5152873 -0.711578E-07  0.824E-04    0.73      26.5  T
   6    -43.5152873 -0.855579E-09  0.266E-04    0.73      82.0  T
     SCC iter.                  ...        0 min,  0.007 sec
     gradient                   ...        0 min,  0.010 sec
 * total energy  :   -43.0221845 Eh     change       -0.2950664E-04 Eh
   gradient norm :     0.0008983 Eh/α   predicted    -0.1008741E-04 ( -65.81%)
   displ. norm   :     0.1267308 α      lambda       -0.2559790E-04
   maximum displ.:     0.1169814 α      in ANC's #1, #2, #4, ...

........................................................................
.............................. CYCLE   34 ..............................
........................................................................
   1    -43.5152635 -0.435153E+02  0.135E-01    0.73       0.0  T
   2    -43.5152642 -0.697838E-06  0.703E-02    0.74       1.0  T
   3    -43.5152643 -0.709641E-07  0.816E-03    0.74       2.7  T
   4    -43.5152643  0.375619E-07  0.358E-03    0.74       6.1  T
   5    -43.5152644 -0.129058E-06  0.973E-04    0.74      22.4  T
   6    -43.5152644 -0.128809E-08  0.362E-04    0.74      60.3  T
     SCC iter.                  ...        0 min,  0.017 sec
     gradient                   ...        0 min,  0.010 sec
 * total energy  :   -43.0222227 Eh     change       -0.3818986E-04 Eh
   gradient norm :     0.0009147 Eh/α   predicted    -0.1289085E-04 ( -66.25%)
   displ. norm   :     0.1649204 α      lambda       -0.3554027E-04
   maximum displ.:     0.1539592 α      in ANC's #1, #2, #4, ...

........................................................................
.............................. CYCLE   35 ..............................
........................................................................
   1    -43.5151027 -0.435151E+02  0.176E-01    0.74       0.0  T
   2    -43.5151038 -0.114316E-05  0.891E-02    0.74       1.0  T
   3    -43.5151040 -0.125862E-06  0.132E-02    0.74       1.7  T
   4    -43.5151038  0.124358E-06  0.508E-03    0.74       4.3  T
   5    -43.5151041 -0.277145E-06  0.126E-03    0.74      17.4  T
   6    -43.5151041 -0.206725E-08  0.492E-04    0.74      44.3  T
   7    -43.5151041 -0.834000E-09  0.220E-04    0.74      99.2  T
     SCC iter.                  ...        0 min,  0.008 sec
     gradient                   ...        0 min,  0.010 sec
 * total energy  :   -43.0222752 Eh     change       -0.5251777E-04 Eh
   gradient norm :     0.0013224 Eh/α   predicted    -0.1798700E-04 ( -65.75%)
   displ. norm   :     0.1867620 α      lambda       -0.4270799E-04
   maximum displ.:     0.1751821 α      in ANC's #1, #4, #2, ...

........................................................................
.............................. CYCLE   36 ..............................
........................................................................
   1    -43.5148201 -0.435148E+02  0.201E-01    0.74       0.0  T
   2    -43.5148215 -0.146868E-05  0.985E-02    0.75       1.0  T
   3    -43.5148217 -0.162314E-06  0.170E-02    0.75       1.3  T
   4    -43.5148215  0.221846E-06  0.612E-03    0.75       3.6  T
   5    -43.5148219 -0.419645E-06  0.143E-03    0.75      15.3  T
   6    -43.5148219 -0.262737E-08  0.581E-04    0.75      37.5  T
   7    -43.5148219 -0.139869E-08  0.257E-04    0.75      85.0  T
     SCC iter.                  ...        0 min,  0.008 sec
     gradient                   ...        0 min,  0.010 sec
 * total energy  :   -43.0223410 Eh     change       -0.6579369E-04 Eh
   gradient norm :     0.0021860 Eh/α   predicted    -0.2168790E-04 ( -67.04%)
   displ. norm   :     0.1292255 α      lambda       -0.4733568E-04
   maximum displ.:     0.1211588 α      in ANC's #1, #4, #2, ...

........................................................................
.............................. CYCLE   37 ..............................
........................................................................
   1    -43.5144713 -0.435145E+02  0.142E-01    0.75       0.0  T
   2    -43.5144721 -0.750052E-06  0.690E-02    0.75       1.0  T
   3    -43.5144721 -0.567451E-07  0.123E-02    0.75       1.8  T
   4    -43.5144720  0.134399E-06  0.475E-03    0.75       4.6  T
   5    -43.5144722 -0.257185E-06  0.100E-03    0.75      21.7  T
   6    -43.5144722 -0.115654E-08  0.418E-04    0.75      52.2  T
   7    -43.5144722 -0.760139E-09  0.185E-04    0.75     117.9  T
     SCC iter.                  ...        0 min,  0.008 sec
     gradient                   ...        0 min,  0.010 sec
 * total energy  :   -43.0223898 Eh     change       -0.4879940E-04 Eh
   gradient norm :     0.0031907 Eh/α   predicted    -0.2406703E-04 ( -50.68%)
   displ. norm   :     0.1336541 α      lambda       -0.5299119E-04
   maximum displ.:     0.1251343 α      in ANC's #1, #4, #2, ...

........................................................................
.............................. CYCLE   38 ..............................
........................................................................
   1    -43.5140331 -0.435140E+02  0.148E-01    0.75       0.0  T
   2    -43.5140339 -0.829388E-06  0.718E-02    0.76       1.0  T
   3    -43.5140340 -0.383309E-07  0.130E-02    0.76       1.7  T
   4    -43.5140338  0.160294E-06  0.529E-03    0.76       4.1  T
   5    -43.5140341 -0.318280E-06  0.105E-03    0.76      20.7  T
   6    -43.5140341 -0.118077E-08  0.442E-04    0.76      49.4  T
   7    -43.5140341 -0.878408E-09  0.194E-04    0.76     112.5  T
     SCC iter.                  ...        0 min,  0.008 sec
     gradient                   ...        0 min,  0.010 sec
 * total energy  :   -43.0224435 Eh     change       -0.5366640E-04 Eh
   gradient norm :     0.0044544 Eh/α   predicted    -0.2697538E-04 ( -49.74%)
   displ. norm   :     0.9762058 α      lambda       -0.3988114E-03
   maximum displ.:     0.9156827 α      in ANC's #1, #4, #2, ...

........................................................................
.............................. CYCLE   39 ..............................
........................................................................
   1    -43.5053299 -0.435053E+02  0.105E+00    0.74       0.0  T
   2    -43.5053841 -0.541021E-04  0.513E-01    0.76       1.0  T
   3    -43.5053765  0.754220E-05  0.989E-02    0.77       1.0  T
   4    -43.5053694  0.706848E-05  0.509E-02    0.76       1.0  T
   5    -43.5053976 -0.282059E-04  0.881E-03    0.76       2.5  T
   6    -43.5053977 -0.604158E-07  0.379E-03    0.76       5.8  T
   7    -43.5053978 -0.755117E-07  0.163E-03    0.76      13.4  T
   8    -43.5053978 -0.663065E-08  0.475E-04    0.76      46.0  T
   9    -43.5053978 -0.859480E-09  0.287E-04    0.76      75.9  T
     SCC iter.                  ...        0 min,  0.010 sec
     gradient                   ...        0 min,  0.010 sec
 * total energy  :   -43.0221925 Eh     change        0.2509936E-03 Eh
   gradient norm :     0.0257888 Eh/α   predicted    -0.3894534E-03 (-255.16%)
   displ. norm   :     0.4819093 α      lambda       -0.9195621E-03
   maximum displ.:     0.4461128 α      in ANC's #1, #2, #4, ...

........................................................................
.............................. CYCLE   40 ..............................
........................................................................
   1    -43.5123401 -0.435123E+02  0.524E-01    0.78       0.0  T
   2    -43.5123560 -0.159120E-04  0.262E-01    0.77       1.0  T
   3    -43.5123512  0.481400E-05  0.508E-02    0.77       1.0  T
   4    -43.5123523 -0.108115E-05  0.288E-02    0.77       1.0  T
   5    -43.5123605 -0.820500E-05  0.484E-03    0.77       4.5  T
   6    -43.5123605 -0.181253E-07  0.216E-03    0.77      10.1  T
   7    -43.5123605 -0.282523E-07  0.813E-04    0.77      26.8  T
   8    -43.5123605 -0.173784E-08  0.319E-04    0.77      68.5  T
     SCC iter.                  ...        0 min,  0.009 sec
     gradient                   ...        0 min,  0.010 sec
 * total energy  :   -43.0226118 Eh     change       -0.4193412E-03 Eh
   gradient norm :     0.0097565 Eh/α   predicted    -0.5665516E-03 (  35.11%)
   displ. norm   :     0.0337804 α      lambda       -0.4341000E-04
   maximum displ.:     0.0250169 α      in ANC's #1, #2, #4, ...

........................................................................
.............................. CYCLE   41 ..............................
........................................................................
   1    -43.5128644 -0.435129E+02  0.375E-02    0.77       0.0  T
   2    -43.5128645 -0.630010E-07  0.154E-02    0.77       1.4  T
   3    -43.5128645 -0.767564E-08  0.286E-03    0.77       7.6  T
   4    -43.5128644  0.101237E-07  0.119E-03    0.77      18.3  T
   5    -43.5128645 -0.173364E-07  0.281E-04    0.77      77.7  T
   6    -43.5128645 -0.334666E-09  0.153E-04    0.77     142.4  T
     SCC iter.                  ...        0 min,  0.007 sec
     gradient                   ...        0 min,  0.010 sec
 * total energy  :   -43.0226526 Eh     change       -0.4076737E-04 Eh
   gradient norm :     0.0086016 Eh/α   predicted    -0.2173162E-04 ( -46.69%)
   displ. norm   :     0.3466291 α      lambda       -0.3317878E-03
   maximum displ.:     0.2926282 α      in ANC's #1, #2, #4, ...

........................................................................
.............................. CYCLE   42 ..............................
........................................................................
   1    -43.5149800 -0.435150E+02  0.369E-01    0.79       0.0  T
   2    -43.5149858 -0.579826E-05  0.155E-01    0.79       1.0  T
   3    -43.5149865 -0.696108E-06  0.309E-02    0.79       1.0  T
   4    -43.5149854  0.106530E-05  0.107E-02    0.79       2.0  T
   5    -43.5149871 -0.169217E-05  0.264E-03    0.79       8.3  T
   6    -43.5149871 -0.199795E-07  0.138E-03    0.79      15.8  T
   7    -43.5149871 -0.747605E-08  0.525E-04    0.79      41.6  T
   8    -43.5149871 -0.775174E-09  0.200E-04    0.79     109.2  T
     SCC iter.                  ...        0 min,  0.009 sec
     gradient                   ...        0 min,  0.010 sec
 * total energy  :   -43.0228838 Eh     change       -0.2311897E-03 Eh
   gradient norm :     0.0043938 Eh/α   predicted    -0.1858088E-03 ( -19.63%)
   displ. norm   :     0.4403247 α      lambda       -0.2202778E-03
   maximum displ.:     0.3965155 α      in ANC's #1, #4, #2, ...
 * RMSD in coord.:     0.5674764 α      energy gain  -0.8534886E-03 Eh

generating ANC from model Hessian ...
Using Lindh-Hessian (1995)
 Shifting diagonal of input Hessian by    8.6849939835624765E-003
 Lowest  eigenvalues of input Hessian
    0.000000    0.000000    0.000000    0.000000    0.000000    0.000000
    0.010000    0.011616    0.013753    0.017025    0.018062    0.021822
    0.026971    0.031680    0.035838    0.043478    0.062030    0.070343
 Highest eigenvalues
    2.040778    2.088192    2.196274    2.598262    3.342726    3.654535


........................................................................
.............................. CYCLE   43 ..............................
........................................................................
   1    -43.5140405 -0.435140E+02  0.447E-01    0.80       0.0  T
   2    -43.5140514 -0.108898E-04  0.197E-01    0.80       1.0  T
   3    -43.5140519 -0.484258E-06  0.437E-02    0.81       1.0  T
   4    -43.5140493  0.254929E-05  0.182E-02    0.80       1.2  T
   5    -43.5140537 -0.432404E-05  0.370E-03    0.80       5.9  T
   6    -43.5140537 -0.300058E-07  0.173E-03    0.80      12.6  T
   7    -43.5140537 -0.121872E-07  0.692E-04    0.80      31.5  T
   8    -43.5140537 -0.143087E-08  0.230E-04    0.80      94.8  T
     SCC iter.                  ...        0 min,  0.009 sec
     gradient                   ...        0 min,  0.010 sec
 * total energy  :   -43.0230757 Eh     change       -0.1919347E-03 Eh
   gradient norm :     0.0054257 Eh/α   predicted     0.0000000E+00 (-100.00%)
   displ. norm   :     0.0659958 α      lambda       -0.8844194E-04
   maximum displ.:     0.0499661 α      in ANC's #1, #6, #2, ...

........................................................................
.............................. CYCLE   44 ..............................
........................................................................
   1    -43.5146864 -0.435147E+02  0.997E-02    0.80       0.0  T
   2    -43.5146870 -0.583896E-06  0.456E-02    0.80       1.0  T
   3    -43.5146871 -0.382080E-07  0.969E-03    0.80       2.3  T
   4    -43.5146870  0.870291E-07  0.302E-03    0.80       7.2  T
   5    -43.5146871 -0.126241E-06  0.691E-04    0.80      31.6  T
   6    -43.5146871 -0.122195E-08  0.306E-04    0.80      71.4  T
     SCC iter.                  ...        0 min,  0.008 sec
     gradient                   ...        0 min,  0.010 sec
 * total energy  :   -43.0231569 Eh     change       -0.8118187E-04 Eh
   gradient norm :     0.0038964 Eh/α   predicted    -0.4661944E-04 ( -42.57%)
   displ. norm   :     0.1796119 α      lambda       -0.1872490E-03
   maximum displ.:     0.1366478 α      in ANC's #1, #2, #6, ...

........................................................................
.............................. CYCLE   45 ..............................
........................................................................
   1    -43.5153864 -0.435154E+02  0.274E-01    0.80       0.0  T
   2    -43.5153911 -0.465312E-05  0.128E-01    0.79       1.0  T
   3    -43.5153912 -0.134907E-06  0.260E-02    0.79       1.0  T
   4    -43.5153904  0.844817E-06  0.957E-03    0.79       2.3  T
   5    -43.5153917 -0.130991E-05  0.198E-03    0.79      11.0  T
   6    -43.5153917 -0.940867E-08  0.828E-04    0.79      26.3  T
   7    -43.5153917 -0.627175E-09  0.483E-04    0.79      45.2  T
     SCC iter.                  ...        0 min,  0.008 sec
     gradient                   ...        0 min,  0.010 sec
 * total energy  :   -43.0232844 Eh     change       -0.1275328E-03 Eh
   gradient norm :     0.0019959 Eh/α   predicted    -0.9664968E-04 ( -24.22%)
   displ. norm   :     0.1759127 α      lambda       -0.5647366E-04
   maximum displ.:     0.1515598 α      in ANC's #1, #2, #3, ...

........................................................................
.............................. CYCLE   46 ..............................
........................................................................
   1    -43.5152620 -0.435153E+02  0.221E-01    0.79       0.0  T
   2    -43.5152657 -0.376023E-05  0.114E-01    0.79       1.0  T
   3    -43.5152650  0.703382E-06  0.170E-02    0.79       1.3  T
   4    -43.5152653 -0.273534E-06  0.878E-03    0.79       2.5  T
   5    -43.5152663 -0.102454E-05  0.195E-03    0.79      11.2  T
   6    -43.5152663 -0.453548E-08  0.785E-04    0.79      27.8  T
   7    -43.5152664 -0.307607E-08  0.383E-04    0.79      57.0  T
     SCC iter.                  ...        0 min,  0.008 sec
     gradient                   ...        0 min,  0.010 sec
 * total energy  :   -43.0233469 Eh     change       -0.6249655E-04 Eh
   gradient norm :     0.0028024 Eh/α   predicted    -0.2890383E-04 ( -53.75%)
   displ. norm   :     0.0714201 α      lambda       -0.4071796E-04
   maximum displ.:     0.0663220 α      in ANC's #1, #2, #3, ...

........................................................................
.............................. CYCLE   47 ..............................
........................................................................
   1    -43.5151861 -0.435152E+02  0.939E-02    0.79       0.0  T
   2    -43.5151866 -0.518349E-06  0.451E-02    0.79       1.0  T
   3    -43.5151865  0.131100E-06  0.894E-03    0.79       2.4  T
   4    -43.5151865  0.264303E-07  0.497E-03    0.79       4.4  T
   5    -43.5151867 -0.269726E-06  0.682E-04    0.79      32.0  T
   6    -43.5151867 -0.182901E-08  0.352E-04    0.79      62.0  T
     SCC iter.                  ...        0 min,  0.007 sec
     gradient                   ...        0 min,  0.010 sec
 * total energy  :   -43.0233871 Eh     change       -0.4022766E-04 Eh
   gradient norm :     0.0026014 Eh/α   predicted    -0.2070655E-04 ( -48.53%)
   displ. norm   :     0.0950278 α      lambda       -0.6441127E-04
   maximum displ.:     0.0861294 α      in ANC's #1, #2, #6, ...

........................................................................
.............................. CYCLE   48 ..............................
........................................................................
   1    -43.5150898 -0.435151E+02  0.154E-01    0.80       0.0  T
   2    -43.5150907 -0.879350E-06  0.659E-02    0.80       1.0  T
   3    -43.5150906  0.715155E-07  0.138E-02    0.80       1.6  T
   4    -43.5150903  0.316363E-06  0.697E-03    0.80       3.1  T
   5    -43.5150909 -0.585291E-06  0.943E-04    0.80      23.1  T
   6    -43.5150909 -0.350918E-08  0.481E-04    0.80      45.4  T
     SCC iter.                  ...        0 min,  0.007 sec
     gradient                   ...        0 min,  0.010 sec
 * total energy  :   -43.0234469 Eh     change       -0.5972993E-04 Eh
   gradient norm :     0.0021656 Eh/α   predicted    -0.3249768E-04 ( -45.59%)
   displ. norm   :     0.1338511 α      lambda       -0.7906644E-04
   maximum displ.:     0.1200627 α      in ANC's #1, #2, #6, ...

........................................................................
.............................. CYCLE   49 ..............................
........................................................................
   1    -43.5148636 -0.435149E+02  0.222E-01    0.81       0.0  T
   2    -43.5148653 -0.162422E-05  0.937E-02    0.81       1.0  T
   3    -43.5148652  0.222281E-07  0.197E-02    0.81       1.1  T
   4    -43.5148646  0.640241E-06  0.875E-03    0.81       2.5  T
   5    -43.5148656 -0.100326E-05  0.131E-03    0.81      16.7  T
   6    -43.5148656 -0.541326E-08  0.643E-04    0.81      33.9  T
   7    -43.5148656 -0.134951E-08  0.259E-04    0.81      84.2  T
     SCC iter.                  ...        0 min,  0.013 sec
     gradient                   ...        0 min,  0.010 sec
 * total energy  :   -43.0235188 Eh     change       -0.7197593E-04 Eh
   gradient norm :     0.0026122 Eh/α   predicted    -0.4024223E-04 ( -44.09%)
   displ. norm   :     0.1394156 α      lambda       -0.7124768E-04
   maximum displ.:     0.1245538 α      in ANC's #1, #2, #3, ...

........................................................................
.............................. CYCLE   50 ..............................
........................................................................
   1    -43.5145854 -0.435146E+02  0.221E-01    0.82       0.0  T
   2    -43.5145870 -0.159878E-05  0.955E-02    0.82       1.0  T
   3    -43.5145870 -0.187861E-07  0.204E-02    0.82       1.1  T
   4    -43.5145864  0.592342E-06  0.801E-03    0.82       2.7  T
   5    -43.5145873 -0.891706E-06  0.133E-03    0.82      16.4  T
   6    -43.5145873 -0.486693E-08  0.619E-04    0.82      35.3  T
   7    -43.5145873 -0.151658E-08  0.259E-04    0.82      84.3  T
     SCC iter.                  ...        0 min,  0.008 sec
     gradient                   ...        0 min,  0.010 sec
 * total energy  :   -43.0235845 Eh     change       -0.6568267E-04 Eh
   gradient norm :     0.0034028 Eh/α   predicted    -0.3633108E-04 ( -44.69%)
   displ. norm   :     0.1166755 α      lambda       -0.5829371E-04
   maximum displ.:     0.1046908 α      in ANC's #1, #2, #3, ...

........................................................................
.............................. CYCLE   51 ..............................
........................................................................
   1    -43.5144762 -0.435145E+02  0.168E-01    0.82       0.0  T
   2    -43.5144771 -0.951454E-06  0.766E-02    0.82       1.0  T
   3    -43.5144771 -0.277572E-07  0.161E-02    0.82       1.4  T
   4    -43.5144768  0.288402E-06  0.553E-03    0.82       3.9  T
   5    -43.5144773 -0.442919E-06  0.106E-03    0.82      20.6  T
   6    -43.5144773 -0.269753E-08  0.459E-04    0.82      47.5  T
   7    -43.5144773 -0.986766E-09  0.205E-04    0.82     106.6  T
     SCC iter.                  ...        0 min,  0.009 sec
     gradient                   ...        0 min,  0.010 sec
 * total energy  :   -43.0236392 Eh     change       -0.5471031E-04 Eh
   gradient norm :     0.0036037 Eh/α   predicted    -0.2954458E-04 ( -46.00%)
   displ. norm   :     0.1116157 α      lambda       -0.5983626E-04
   maximum displ.:     0.1014524 α      in ANC's #1, #2, #3, ...

........................................................................
.............................. CYCLE   52 ..............................
........................................................................
   1    -43.5145543 -0.435146E+02  0.145E-01    0.82       0.0  T
   2    -43.5145550 -0.754695E-06  0.704E-02    0.82       1.0  T
   3    -43.5145551 -0.429781E-07  0.132E-02    0.82       1.6  T
   4    -43.5145549  0.135448E-06  0.395E-03    0.82       5.5  T
   5    -43.5145552 -0.230937E-06  0.968E-04    0.82      22.5  T
   6    -43.5145552 -0.227070E-08  0.395E-04    0.82      55.3  T
     SCC iter.                  ...        0 min,  0.007 sec
     gradient                   ...        0 min,  0.010 sec
 * total energy  :   -43.0236958 Eh     change       -0.5658010E-04 Eh
   gradient norm :     0.0031548 Eh/α   predicted    -0.3029329E-04 ( -46.46%)
   displ. norm   :     0.1363312 α      lambda       -0.7485587E-04
   maximum displ.:     0.1257960 α      in ANC's #1, #2, #3, ...

........................................................................
.............................. CYCLE   53 ..............................
........................................................................
   1    -43.5147196 -0.435147E+02  0.165E-01    0.82       0.0  T
   2    -43.5147207 -0.107160E-05  0.836E-02    0.82       1.0  T
   3    -43.5147208 -0.620770E-07  0.130E-02    0.82       1.7  T
   4    -43.5147206  0.122384E-06  0.423E-03    0.82       5.2  T
   5    -43.5147209 -0.257602E-06  0.116E-03    0.82      18.8  T
   6    -43.5147209 -0.287863E-08  0.460E-04    0.82      47.4  T
   7    -43.5147209 -0.114512E-08  0.218E-04    0.82      99.9  T
     SCC iter.                  ...        0 min,  0.008 sec
     gradient                   ...        0 min,  0.010 sec
 * total energy  :   -43.0237632 Eh     change       -0.6734355E-04 Eh
   gradient norm :     0.0022004 Eh/α   predicted    -0.3812639E-04 ( -43.39%)
   displ. norm   :     0.1580866 α      lambda       -0.7505808E-04
   maximum displ.:     0.1478990 α      in ANC's #1, #2, #4, ...

........................................................................
.............................. CYCLE   54 ..............................
........................................................................
   1    -43.5148613 -0.435149E+02  0.183E-01    0.82       0.0  T
   2    -43.5148627 -0.142365E-05  0.951E-02    0.82       1.0  T
   3    -43.5148627  0.743363E-09  0.118E-02    0.81       1.9  T
   4    -43.5148626  0.103589E-06  0.529E-03    0.81       4.1  T
   5    -43.5148630 -0.383606E-06  0.134E-03    0.81      16.3  T
   6    -43.5148630 -0.252810E-08  0.518E-04    0.81      42.1  T
   7    -43.5148630 -0.175543E-08  0.234E-04    0.81      93.3  T
     SCC iter.                  ...        0 min,  0.009 sec
     gradient                   ...        0 min,  0.010 sec
 * total energy  :   -43.0238274 Eh     change       -0.6423077E-04 Eh
   gradient norm :     0.0014165 Eh/α   predicted    -0.3846818E-04 ( -40.11%)
   displ. norm   :     0.2368413 α      lambda       -0.5757367E-04
   maximum displ.:     0.2246283 α      in ANC's #1, #2, #4, ...

........................................................................
.............................. CYCLE   55 ..............................
........................................................................
   1    -43.5149018 -0.435149E+02  0.265E-01    0.81       0.0  T
   2    -43.5149051 -0.322682E-05  0.139E-01    0.81       1.0  T
   3    -43.5149047  0.400629E-06  0.162E-02    0.81       1.3  T
   4    -43.5149048 -0.913004E-07  0.892E-03    0.81       2.4  T
   5    -43.5149058 -0.101146E-05  0.199E-03    0.81      11.0  T
   6    -43.5149058 -0.354137E-08  0.774E-04    0.81      28.2  T
   7    -43.5149058 -0.428235E-08  0.335E-04    0.81      65.2  T
     SCC iter.                  ...        0 min,  0.008 sec
     gradient                   ...        0 min,  0.010 sec
 * total energy  :   -43.0238924 Eh     change       -0.6501045E-04 Eh
   gradient norm :     0.0020328 Eh/α   predicted    -0.2950749E-04 ( -54.61%)
   displ. norm   :     0.1203843 α      lambda       -0.2992576E-04
   maximum displ.:     0.1159838 α      in ANC's #1, #2, #4, ...

........................................................................
.............................. CYCLE   56 ..............................
........................................................................
   1    -43.5150845 -0.435151E+02  0.129E-01    0.81       0.0  T
   2    -43.5150854 -0.809997E-06  0.656E-02    0.81       1.0  T
   3    -43.5150852  0.121840E-06  0.106E-02    0.80       2.1  T
   4    -43.5150851  0.988775E-07  0.563E-03    0.80       3.9  T
   5    -43.5150855 -0.411380E-06  0.952E-04    0.80      22.9  T
   6    -43.5150856 -0.172965E-08  0.446E-04    0.80      48.9  T
     SCC iter.                  ...        0 min,  0.008 sec
     gradient                   ...        0 min,  0.010 sec
 * total energy  :   -43.0239191 Eh     change       -0.2668097E-04 Eh
   gradient norm :     0.0021833 Eh/α   predicted    -0.1518138E-04 ( -43.10%)
   displ. norm   :     0.2049645 α      lambda       -0.4773803E-04
   maximum displ.:     0.1976239 α      in ANC's #1, #4, #2, ...

........................................................................
.............................. CYCLE   57 ..............................
........................................................................
   1    -43.5151317 -0.435151E+02  0.219E-01    0.81       0.0  T
   2    -43.5151341 -0.245616E-05  0.109E-01    0.80       1.0  T
   3    -43.5151335  0.614637E-06  0.204E-02    0.80       1.1  T
   4    -43.5151332  0.291716E-06  0.113E-02    0.80       1.9  T
   5    -43.5151348 -0.155709E-05  0.164E-03    0.80      13.3  T
   6    -43.5151348 -0.734479E-08  0.820E-04    0.80      26.6  T
   7    -43.5151348 -0.196990E-08  0.349E-04    0.80      62.5  T
     SCC iter.                  ...        0 min,  0.008 sec
     gradient                   ...        0 min,  0.010 sec
 * total energy  :   -43.0239604 Eh     change       -0.4134337E-04 Eh
   gradient norm :     0.0023467 Eh/α   predicted    -0.2487317E-04 ( -39.84%)
   displ. norm   :     0.4206528 α      lambda       -0.7958060E-04
   maximum displ.:     0.4052028 α      in ANC's #1, #4, #9, ...

........................................................................
.............................. CYCLE   58 ..............................
........................................................................
   1    -43.5141622 -0.435142E+02  0.455E-01    0.81       0.0  T
   2    -43.5141734 -0.111844E-04  0.219E-01    0.80       1.0  T
   3    -43.5141699  0.349890E-05  0.463E-02    0.80       1.0  T
   4    -43.5141686  0.123725E-05  0.262E-02    0.80       1.0  T
   5    -43.5141766 -0.792397E-05  0.351E-03    0.80       6.2  T
   6    -43.5141766 -0.369141E-07  0.177E-03    0.80      12.3  T
   7    -43.5141766 -0.944212E-08  0.736E-04    0.80      29.7  T
   8    -43.5141766 -0.154459E-08  0.269E-04    0.80      81.1  T
     SCC iter.                  ...        0 min,  0.010 sec
     gradient                   ...        0 min,  0.010 sec
 * total energy  :   -43.0240088 Eh     change       -0.4837105E-04 Eh
   gradient norm :     0.0040446 Eh/α   predicted    -0.4683846E-04 (  -3.17%)
   displ. norm   :     0.1659681 α      lambda       -0.3740010E-04
   maximum displ.:     0.1558999 α      in ANC's #1, #4, #9, ...

........................................................................
.............................. CYCLE   59 ..............................
........................................................................
   1    -43.5146901 -0.435147E+02  0.170E-01    0.81       0.0  T
   2    -43.5146917 -0.158282E-05  0.763E-02    0.80       1.0  T
   3    -43.5146913  0.357055E-06  0.179E-02    0.80       1.2  T
   4    -43.5146910  0.320372E-06  0.103E-02    0.80       2.1  T
   5    -43.5146922 -0.114331E-05  0.136E-03    0.80      16.1  T
   6    -43.5146922 -0.839115E-08  0.697E-04    0.80      31.3  T
   7    -43.5146922 -0.984080E-09  0.278E-04    0.80      78.5  T
     SCC iter.                  ...        0 min,  0.009 sec
     gradient                   ...        0 min,  0.010 sec
 * total energy  :   -43.0240389 Eh     change       -0.3014183E-04 Eh
   gradient norm :     0.0029705 Eh/α   predicted    -0.1921564E-04 ( -36.25%)
   displ. norm   :     0.3870397 α      lambda       -0.5673344E-04
   maximum displ.:     0.3648616 α      in ANC's #1, #4, #9, ...

........................................................................
.............................. CYCLE   60 ..............................
........................................................................
   1    -43.5141582 -0.435142E+02  0.419E-01    0.81       0.0  T
   2    -43.5141684 -0.102421E-04  0.189E-01    0.80       1.0  T
   3    -43.5141644  0.404076E-05  0.461E-02    0.80       1.0  T
   4    -43.5141645 -0.103223E-06  0.272E-02    0.79       1.0  T
   5    -43.5141719 -0.736366E-05  0.337E-03    0.80       6.5  T
   6    -43.5141719 -0.536947E-07  0.171E-03    0.80      12.7  T
   7    -43.5141719 -0.687205E-08  0.690E-04    0.80      31.6  T
   8    -43.5141719 -0.152584E-08  0.254E-04    0.80      85.8  T
     SCC iter.                  ...        0 min,  0.015 sec
     gradient                   ...        0 min,  0.010 sec
 * total energy  :   -43.0240735 Eh     change       -0.3459113E-04 Eh
   gradient norm :     0.0037916 Eh/α   predicted    -0.3262675E-04 (  -5.68%)
   displ. norm   :     0.0725378 α      lambda       -0.4325323E-04
   maximum displ.:     0.0488981 α      in ANC's #1, #4, #2, ...

........................................................................
.............................. CYCLE   61 ..............................
........................................................................
   1    -43.5158396 -0.435158E+02  0.109E-01    0.81       0.0  T
   2    -43.5158403 -0.733616E-06  0.438E-02    0.81       1.0  T
   3    -43.5158402  0.110046E-06  0.747E-03    0.81       2.9  T
   4    -43.5158404 -0.212680E-06  0.428E-03    0.81       5.1  T
   5    -43.5158405 -0.996746E-07  0.121E-03    0.81      18.0  T
   6    -43.5158405 -0.691892E-08  0.464E-04    0.81      47.0  T
   7    -43.5158405 -0.338161E-09  0.196E-04    0.81     111.3  T
     SCC iter.                  ...        0 min,  0.008 sec
     gradient                   ...        0 min,  0.010 sec
 * total energy  :   -43.0240873 Eh     change       -0.1374793E-04 Eh
   gradient norm :     0.0030184 Eh/α   predicted    -0.2174594E-04 (  58.18%)
   displ. norm   :     0.1426317 α      lambda       -0.2057553E-04
   maximum displ.:     0.1339767 α      in ANC's #1, #4, #2, ...

........................................................................
.............................. CYCLE   62 ..............................
........................................................................
   1    -43.5147905 -0.435148E+02  0.158E-01    0.81       0.0  T
   2    -43.5147921 -0.153732E-05  0.745E-02    0.80       1.0  T
   3    -43.5147912  0.869516E-06  0.179E-02    0.80       1.2  T
   4    -43.5147916 -0.361852E-06  0.104E-02    0.80       2.1  T
   5    -43.5147926 -0.106466E-05  0.127E-03    0.80      17.2  T
   6    -43.5147926 -0.638873E-08  0.664E-04    0.80      32.8  T
   7    -43.5147927 -0.138004E-08  0.274E-04    0.80      79.5  T
     SCC iter.                  ...        0 min,  0.009 sec
     gradient                   ...        0 min,  0.010 sec
 * total energy  :   -43.0241008 Eh     change       -0.1351460E-04 Eh
   gradient norm :     0.0021370 Eh/α   predicted    -0.1049760E-04 ( -22.32%)
   displ. norm   :     0.0384111 α      lambda       -0.1176738E-04
   maximum displ.:     0.0289149 α      in ANC's #1, #2, #4, ...

........................................................................
.............................. CYCLE   63 ..............................
........................................................................
   1    -43.5144080 -0.435144E+02  0.420E-02    0.80       0.0  T
   2    -43.5144081 -0.130641E-06  0.222E-02    0.80       1.0  T
   3    -43.5144079  0.166367E-06  0.428E-03    0.80       5.1  T
   4    -43.5144081 -0.213289E-06  0.145E-03    0.80      15.0  T
   5    -43.5144081 -0.739041E-08  0.436E-04    0.80      50.0  T
   6    -43.5144081 -0.505239E-09  0.240E-04    0.80      90.8  T
     SCC iter.                  ...        0 min,  0.007 sec
     gradient                   ...        0 min,  0.010 sec
 * total energy  :   -43.0241099 Eh     change       -0.9120994E-05 Eh
[...]

         :::::::::::::::::::::::::::::::::::::::::::::::::::::
         ::                     SUMMARY                     ::
         :::::::::::::::::::::::::::::::::::::::::::::::::::::
         :: total energy             -43.024137218134 Eh    ::
         :: total w/o Gsasa/hb       -43.013374886199 Eh    ::
         :: gradient norm              0.000073872204 Eh/a0 ::
         :: HOMO-LUMO gap              0.782656940725 eV    ::
         ::.................................................::
         :: SCC energy               -43.514938231600 Eh    ::
         :: -> isotropic ES            0.226337919574 Eh    ::
         :: -> anisotropic ES         -0.057597417911 Eh    ::
         :: -> anisotropic XC          0.007746610702 Eh    ::
         :: -> dispersion             -0.025428173477 Eh    ::
         :: -> Gsolv                  -0.069964460798 Eh    ::
         ::    -> Gelec               -0.059202128863 Eh    ::
         ::    -> Gsasa               -0.003980465026 Eh    ::
         ::    -> Ghb                 -0.007862626608 Eh    ::
         ::    -> Gshift               0.001080759698 Eh    ::
         :: repulsion energy           0.490712845298 Eh    ::
         :: add. restraining           0.000000000000 Eh    ::
         :: total charge              -0.000000000000 e     ::
         :::::::::::::::::::::::::::::::::::::::::::::::::::::

           ------------------------------------------------- 
          |                Numerical Hessian                |
           ------------------------------------------------- 
step length          :   0.00500
SCC accuracy         :   0.30000
Hessian scale factor :   1.00000
frozen atoms in %    :   0.00000    0
RMS gradient         :   0.00007
estimated CPU  time      0.70 min
estimated wall time      0.04 min

writing file <hessian>.

 projected vibrational frequencies (cm⁻¹)
eigval :       -0.00    -0.00     0.00     0.00     0.00     0.00
eigval :       20.25    41.64    54.09    79.34   114.53   155.97
eigval :      182.38   189.56   211.44   297.42   328.48   377.04
eigval :      397.37   458.16   459.67   489.75   491.36   506.99
eigval :      544.62   547.81   562.48   602.30   687.32   703.43
eigval :      729.57   749.68   772.79   787.54   850.70   864.99
eigval :      903.32   920.97   973.93  1029.96  1047.53  1057.92
eigval :     1075.42  1141.67  1149.12  1173.26  1175.67  1219.72
eigval :     1282.17  1302.93  1353.59  1365.54  1405.83  1490.96
eigval :     1532.66  1571.73  1609.30  3079.34  3092.24  3098.04
eigval :     3102.12  3108.32  3402.87
           -------------------------------------------------
          |                Property Printout                |
           -------------------------------------------------

    * Orbital Energies and Occupations

         #    Occupation            Energy/Eh            Energy/eV
      -------------------------------------------------------------
         1        2.0000           -0.7937200             -21.5982
       ...           ...                  ...                  ...
        25        2.0000           -0.4888318             -13.3018
        26        2.0000           -0.4878192             -13.2742
        27        2.0000           -0.4872684             -13.2592
        28        2.0000           -0.4742894             -12.9061
        29        2.0000           -0.4703835             -12.7998
        30        2.0000           -0.4676715             -12.7260
        31        2.0000           -0.4623530             -12.5813
        32        2.0000           -0.4588455             -12.4858
        33        2.0000           -0.4375167             -11.9054
        34        2.0000           -0.4299059             -11.6983
        35        2.0000           -0.4258488             -11.5879
        36        2.0000           -0.3978806             -10.8269
        37        2.0000           -0.3793354             -10.3222 (HOMO)
        38        0.0000           -0.3505733              -9.5396 (LUMO)
        39                         -0.2464251              -6.7056
        40                         -0.2108427              -5.7373
        41                         -0.1811269              -4.9287
        42                         -0.1197038              -3.2573
        43                         -0.0885435              -2.4094
        44                         -0.0866065              -2.3567
        45                         -0.0789413              -2.1481
        46                         -0.0445951              -1.2135
        47                         -0.0028500              -0.0776
        48                          0.0190410               0.5181
       ...                                ...                  ...
        71                          1.2052862              32.7975
      -------------------------------------------------------------
                  HL-Gap            0.0287621 Eh            0.7827 eV
             Fermi-level           -0.3649544 Eh           -9.9309 eV

     #   Z          covCN         q      C6AA      α(0)
     1   6 C        2.909    -0.035    28.872     8.811
     2   6 C        2.920    -0.042    29.050     8.839
     3   6 C        2.923    -0.038    28.953     8.824
     4   6 C        2.908    -0.054    29.348     8.883
     5   6 C        3.087     0.048    26.824     8.490
     6   6 C        3.097    -0.032    28.663     8.774
     7   7 N        2.775    -0.097    23.146     7.145
     8   6 C        3.284    -0.049    27.645     8.453
     9   6 C        3.200     0.086    25.568     8.240
    10   1 H        0.926     0.022     2.704     2.571
    11   1 H        0.926     0.051     2.303     2.373
    12   1 H        0.926     0.066     2.130     2.282
    13   1 H        0.926     0.080     1.979     2.200
    14   1 H        0.860     0.270     0.811     1.411
    15   1 H        0.951     0.091     1.862     2.133
    16   8 O        1.719    -0.490    22.659     6.427
    17  16 S        4.364     1.601    91.041    16.059
    18   8 O        0.861    -0.747    30.031     7.347
    19   8 O        1.503    -0.786    30.214     7.413
    20   8 O        1.503    -0.790    30.345     7.429
    21  19 K        2.408     0.846   151.427    38.988

 Mol. C6AA /au·bohr⁶  :       9227.174103
 Mol. C8AA /au·bohr⁸  :     342051.010773
 Mol. α(0) /au        :        173.091807


Wiberg/Mayer (AO) data.
largest (>0.10) Wiberg bond orders for each atom

 ---------------------------------------------------------------------------
     #   Z sym  total        # sym  WBO       # sym  WBO       # sym  WBO
 ---------------------------------------------------------------------------
     1   6 C    3.989 --     2 C    1.517     6 C    1.318    10 H    0.970
                             4 C    0.116
     2   6 C    3.985 --     1 C    1.517     3 C    1.359    11 H    0.969
     3   6 C    3.984 --     4 C    1.506     2 C    1.359    12 H    0.968
     4   6 C    3.979 --     3 C    1.506     5 C    1.325    13 H    0.960
                             1 C    0.116
     5   6 C    3.959 --     4 C    1.325     6 C    1.244     7 N    1.188
     6   6 C    3.979 --     1 C    1.318     5 C    1.244     9 C    1.201
     7   7 N    3.553 --     8 C    1.214     5 C    1.188    14 H    0.893
     8   6 C    3.959 --     9 C    1.532     7 N    1.214    15 H    0.937
     9   6 C    3.850 --     8 C    1.532     6 C    1.201    16 O    0.922
    10   1 H    0.999 --     1 C    0.970
    11   1 H    0.997 --     2 C    0.969
    12   1 H    0.995 --     3 C    0.968
    13   1 H    0.991 --     4 C    0.960
    14   1 H    0.927 --     7 N    0.893
    15   1 H    0.991 --     8 C    0.937
    16   8 O    2.105 --     9 C    0.922    17 S    0.896
    17  16 S    4.878 --    18 O    1.413    20 O    1.302    19 O    1.299
                            16 O    0.896
    18   8 O    1.714 --    17 S    1.413    19 O    0.103    20 O    0.102
    19   8 O    1.684 --    17 S    1.299    18 O    0.103    20 O    0.102
    20   8 O    1.680 --    17 S    1.302    19 O    0.102    18 O    0.102
    21  19 K    0.278 -- ---------------------------------------------------------------------------

Topologies differ in total number of bonds
Writing topology from bond orders to xtbtopo.mol

molecular dipole:
                 x           y           z       tot (Debye)
 q only:        2.010      -5.773      -1.986
   full:        1.515      -5.256      -1.809      14.644
molecular quadrupole (traceless):
                xx          xy          yy          xz          yz          zz
 q only:        1.503      15.441      -0.639      14.638       7.109      -0.864
  q+dip:        0.030      15.782       2.123      13.915       5.404      -2.154
   full:       -2.132      16.100       1.870      15.027       7.598       0.262

           -------------------------------------------------
          |                Geometry Summary                 |
           -------------------------------------------------

      molecular mass/u    :      251.3009429
   center of mass at/Å    :        0.1750499       0.0561411      -0.1903588
  moments of inertia/u·Å² :        0.5418663E+03   0.1557683E+04   0.1808487E+04
rotational constants/cm⁻¹ :        0.3111032E-01   0.1082225E-01   0.9321399E-02

 * 24 selected distances

     #   Z          #   Z                                           value/Å
     1   6 C        2   6 C                                       1.3754052
     2   6 C        3   6 C                                       1.4009296
     3   6 C        4   6 C                                       1.3767788
     4   6 C        5   6 C                                       1.3924131
     1   6 C        6   6 C                                       1.3972265
     5   6 C        6   6 C                                       1.4197480
     5   6 C        7   7 N                                       1.3641417
     7   7 N        8   6 C                                       1.3715625
     6   6 C        9   6 C                                       1.4278612
     8   6 C        9   6 C                                       1.3718222
     1   6 C       10   1 H                                       1.0795543
     2   6 C       11   1 H                                       1.0789022
     3   6 C       12   1 H                                       1.0785184
     4   6 C       13   1 H                                       1.0779754
     7   7 N       14   1 H                                       1.0103635 (min)
     8   6 C       15   1 H                                       1.0760808
     9   6 C       16   8 O                                       1.3957314
    16   8 O       17  16 S                                       1.5934028
    17  16 S       18   8 O                                       1.4373266
    17  16 S       19   8 O                                       1.4641517
    17  16 S       20   8 O                                       1.4639298
    17  16 S       21  19 K                                       2.8696068 (max)
    19   8 O       21  19 K                                       2.3334017
    20   8 O       21  19 K                                       2.3237551

 * 8 distinct bonds (by element types)

   Z      Z             #   av. dist./Å        max./Å        min./Å
   1 H    6 C           5     1.0782062     1.0795543     1.0760808
   6 C    6 C           8     1.3952731     1.4278612     1.3718222
   1 H    7 N           1     1.0103635     1.0103635     1.0103635
   6 C    7 N           2     1.3678521     1.3715625     1.3641417
   6 C    8 O           1     1.3957314     1.3957314     1.3957314
   8 O   16 S           4     1.4897027     1.5934028     1.4373266
   8 O   19 K           2     2.3285784     2.3334017     2.3237551
  16 S   19 K           1     2.8696068     2.8696068     2.8696068

           -------------------------------------------------
          |               Frequency Printout                |
           -------------------------------------------------
 projected vibrational frequencies (cm⁻¹)
eigval :       -0.00    -0.00     0.00     0.00     0.00     0.00
eigval :       20.25    41.64    54.09    79.34   114.53   155.97
eigval :      182.38   189.56   211.44   297.42   328.48   377.04
eigval :      397.37   458.16   459.67   489.75   491.36   506.99
eigval :      544.62   547.81   562.48   602.30   687.32   703.43
eigval :      729.57   749.68   772.79   787.54   850.70   864.99
eigval :      903.32   920.97   973.93  1029.96  1047.53  1057.92
eigval :     1075.42  1141.67  1149.12  1173.26  1175.67  1219.72
eigval :     1282.17  1302.93  1353.59  1365.54  1405.83  1490.96
eigval :     1532.66  1571.73  1609.30  3079.34  3092.24  3098.04
Molecule has no symmetry elements
It seems to be the C1 point group
eigval :     3102.12  3108.32  3402.87
 reduced masses (amu)
   1: 21.88   2: 13.36   3: 16.17   4: 18.16   5: 19.84   6: 27.30   7: 20.45   8: 16.08
   9: 29.43  10: 14.29  11: 21.21  12: 14.36  13: 27.59  14: 18.56  15: 10.20  16: 17.30
  17: 13.25  18: 14.63  19:  9.06  20:  6.28  21: 13.47  22: 18.07  23: 17.69  24: 18.12
  25:  9.56  26: 12.37  27: 11.76  28: 11.78  29: 14.60  30: 12.92  31:  5.01  32: 15.45
  33:  3.66  34: 11.10  35: 11.23  36:  3.43  37:  3.87  38:  3.13  39: 17.84  40:  9.50
  41:  3.35  42:  6.52  43: 22.26  44:  4.95  45:  4.39  46: 22.67  47:  2.76  48:  6.12
  49: 10.15  50:  7.79  51: 11.94  52: 10.72  53:  9.45  54: 10.66  55: 11.81  56: 11.62
  57: 11.70  58:  1.79  59:  1.80  60:  1.84  61:  1.88  62:  1.91  63:  1.90
 IR intensities (km·mol⁻¹)
   1:  5.56   2:  0.41   3:  5.08   4:  2.80   5:  4.48   6:  2.56   7:  2.39   8:  2.69
   9: 14.76  10:  7.94  11:  6.08  12:  7.85  13: 22.72  14: 10.33  15:  2.40  16:  1.23
  17:  6.88  18:  2.46  19:  5.75  20: 48.94  21: 64.76  22:138.74  23: 77.99  24:263.08
  25: 26.05  26: 74.21  27: 15.16  28: 21.72  29: 74.92  30: 41.15  31: 57.75  32:407.18
  33: 47.09  34: 55.34  35: 13.06  36:  0.44  37:  0.14  38:  0.07  39:291.75  40:135.20
  41: 64.19  42:  5.67  43:633.75  44: 31.77  45:  7.15  46:758.55  47: 17.05  48: 45.33
  49:112.39  50: 44.46  51:  9.23  52:  8.96  53: 16.18  54: 27.63  55: 17.71  56:  2.09
  57: 27.09  58: 62.98  59: 39.21  60: 72.70  61:  5.85  62: 57.60  63:263.86
 Raman intensities (amu)
   1:  0.00   2:  0.00   3:  0.00   4:  0.00   5:  0.00   6:  0.00   7:  0.00   8:  0.00
   9:  0.00  10:  0.00  11:  0.00  12:  0.00  13:  0.00  14:  0.00  15:  0.00  16:  0.00
  17:  0.00  18:  0.00  19:  0.00  20:  0.00  21:  0.00  22:  0.00  23:  0.00  24:  0.00
  25:  0.00  26:  0.00  27:  0.00  28:  0.00  29:  0.00  30:  0.00  31:  0.00  32:  0.00
  33:  0.00  34:  0.00  35:  0.00  36:  0.00  37:  0.00  38:  0.00  39:  0.00  40:  0.00
  41:  0.00  42:  0.00  43:  0.00  44:  0.00  45:  0.00  46:  0.00  47:  0.00  48:  0.00
  49:  0.00  50:  0.00  51:  0.00  52:  0.00  53:  0.00  54:  0.00  55:  0.00  56:  0.00
  57:  0.00  58:  0.00  59:  0.00  60:  0.00  61:  0.00  62:  0.00  63:  0.00
 output can be read by thermo (or use thermo option).
 writing <g98.out> molden fake output.
 recommended (thermochemical) frequency scaling factor: 1.0
           -------------------------------------------------
          |             Thermodynamic Functions             |
           -------------------------------------------------

c1  symmetry found (for desy threshold:  0.10E+00) used in thermo

          ...................................................
          :                      SETUP                      :
          :.................................................:
          :  # frequencies                          57      :
          :  # imaginary freq.                       0      :
          :  linear?                             false      :
          :  only rotor calc.                    false      :
          :  symmetry                               c1      :
          :  rotational number                       1      :
          :  scaling factor                  1.0000000      :
          :  rotor cutoff                   50.0000000 cm⁻¹ :
          :  imag. cutoff                  -20.0000000 cm⁻¹ :
          :.................................................:

    mode    ω/cm⁻¹     T·S(HO)/kcal·mol⁻¹    T·S(FR)/kcal·mol⁻¹   T·S(vib)
   ------------------------------------------------------------------------
       1     20.25    -1.97075 (  2.62%)    -1.32419 ( 97.38%)    -1.34111
       2     41.64    -1.54419 ( 32.49%)    -1.11062 ( 67.51%)    -1.25149
       3     54.09    -1.38993 ( 57.80%)    -1.03317 ( 42.20%)    -1.23939
       4     79.34    -1.16490 ( 86.38%)    -0.91972 ( 13.62%)    -1.13150
       5    114.53    -0.95127 ( 96.50%)    -0.81098 (  3.50%)    -0.94635
       6    155.97    -0.77463 ( 98.95%)    -0.71951 (  1.05%)    -0.77405
       7    182.38    -0.68690 ( 99.44%)    -0.67317 (  0.56%)    -0.68682
       8    189.56    -0.66552 ( 99.52%)    -0.66174 (  0.48%)    -0.66550
       9    211.44    -0.60560 ( 99.69%)    -0.62938 (  0.31%)    -0.60568
      10    297.42    -0.42677 ( 99.92%)    -0.52830 (  0.08%)    -0.42685
   ------------------------------------------------------------------------

   temp. (K)  partition function   enthalpy   heat capacity  entropy
                                   cal/mol     cal/K/mol   cal/K/mol   J/K/mol
 298.15  VIB  0.110E+06             6850.461     44.838     42.312
         ROT  0.298E+07              888.752      2.981     32.609
         INT  0.327E+12             7739.214     47.819     74.920
         TR   0.385E+28             1481.254      4.968     42.445
         TOT                        9220.4676    52.7869   117.3659   491.0591

       T/K    H(0)-H(T)+PV         H(T)/Eh          T*S/Eh         G(T)/Eh
   ------------------------------------------------------------------------
    298.15    0.146938E-01    0.146656E+00    0.557643E-01    0.908919E-01
   ------------------------------------------------------------------------

         :::::::::::::::::::::::::::::::::::::::::::::::::::::
         ::                  THERMODYNAMIC                  ::
         :::::::::::::::::::::::::::::::::::::::::::::::::::::
         :: total free energy         -42.933245357184 Eh   ::
         ::.................................................::
         :: total energy              -43.024137215820 Eh   ::
         :: zero point energy           0.131962455003 Eh   ::
         :: G(RRHO) w/o ZPVE           -0.041070596367 Eh   ::
         :: G(RRHO) contrib.            0.090891858635 Eh   ::
         :::::::::::::::::::::::::::::::::::::::::::::::::::::

optimized geometry written to: xtbopt.xyz


           -------------------------------------------------
          | TOTAL ENERGY              -43.024137215820 Eh   |
          | TOTAL ENTHALPY            -42.877481010461 Eh   |
          | TOTAL FREE ENERGY         -42.933245357184 Eh   |
          | GRADIENT NORM               0.000073866014 Eh/α |
          | HOMO-LUMO GAP               0.782656393647 eV   |
           -------------------------------------------------

------------------------------------------------------------------------
 * finished run on 2022/09/13 at 14:12:53.590     
------------------------------------------------------------------------
 total:
 * wall-time:     0 d,  0 h,  0 min,  4.397 sec
 *  cpu-time:     0 d,  0 h,  1 min,  9.602 sec
 * ratio c/w:    15.829 speedup
 SCF:
 * wall-time:     0 d,  0 h,  0 min,  0.032 sec
 *  cpu-time:     0 d,  0 h,  0 min,  0.453 sec
 * ratio c/w:    14.000 speedup
 ANC optimizer:
 * wall-time:     0 d,  0 h,  0 min,  1.698 sec
 *  cpu-time:     0 d,  0 h,  0 min, 26.619 sec
 * ratio c/w:    15.675 speedup
 analytical hessian:
 * wall-time:     0 d,  0 h,  0 min,  2.656 sec
 *  cpu-time:     0 d,  0 h,  0 min, 42.359 sec
 * ratio c/w:    15.951 speedup

