      -----------------------------------------------------------      
     |                   =====================                   |     
     |                           x T B                           |     
     |                   =====================                   |     
     |                         S. Grimme                         |     
     |          Mulliken Center for Theoretical Chemistry        |     
     |                    University of Bonn                     |     
      -----------------------------------------------------------      

   * xtb version 6.4.1 (1a3296197974bf90c4de5929bcb902c290d06ae5) compiled by 'salvador@Linux' on 07/07/2022

   xtb is free software: you can redistribute it and/or modify it under
   the terms of the GNU Lesser General Public License as published by
   the Free Software Foundation, either version 3 of the License, or
   (at your option) any later version.
   
   xtb is distributed in the hope that it will be useful,
   but WITHOUT ANY WARRANTY; without even the implied warranty of
   MERCHANTABILITY or FITNESS FOR A PARTICULAR PURPOSE.  See the
   GNU Lesser General Public License for more details.
   
   Cite this work as:
   * C. Bannwarth, E. Caldeweyher, S. Ehlert, A. Hansen, P. Pracht,
     J. Seibert, S. Spicher, S. Grimme, WIREs Comput. Mol. Sci., 2020, 11,
     e01493. DOI: 10.1002/wcms.1493
   
   for GFN2-xTB:
   * C. Bannwarth, S. Ehlert and S. Grimme., J. Chem. Theory Comput., 2019,
     15, 1652-1671. DOI: 10.1021/acs.jctc.8b01176
   for GFN1-xTB:
   * S. Grimme, C. Bannwarth, P. Shushkov, J. Chem. Theory Comput., 2017,
     13, 1989-2009. DOI: 10.1021/acs.jctc.7b00118
   for GFN0-xTB:
   * P. Pracht, E. Caldeweyher, S. Ehlert, S. Grimme, ChemRxiv, 2019, preprint.
     DOI: 10.26434/chemrxiv.8326202.v1
   for GFN-FF:
   * S. Spicher and S. Grimme, Angew. Chem. Int. Ed., 2020, 59, 15665-15673.
     DOI: 10.1002/anie.202004239
   
   for ALPB and GBSA implicit solvation:
   * S. Ehlert, M. Stahn, S. Spicher, S. Grimme, J. Chem. Theory Comput.,
     2021, 17, 4250-4261. DOI: 10.1021/acs.jctc.1c00471
   
   for DFT-D4:
   * E. Caldeweyher, C. Bannwarth and S. Grimme, J. Chem. Phys., 2017,
     147, 034112. DOI: 10.1063/1.4993215
   * E. Caldeweyher, S. Ehlert, A. Hansen, H. Neugebauer, S. Spicher,
     C. Bannwarth and S. Grimme, J. Chem. Phys., 2019, 150, 154122.
     DOI: 10.1063/1.5090222
   * E. Caldeweyher, J.-M. Mewes, S. Ehlert and S. Grimme, Phys. Chem. Chem. Phys.
     2020, 22, 8499-8512. DOI: 10.1039/D0CP00502A
   
   for sTDA-xTB:
   * S. Grimme and C. Bannwarth, J. Chem. Phys., 2016, 145, 054103.
     DOI: 10.1063/1.4959605
   
   in the mass-spec context:
   * V. Asgeirsson, C. Bauer and S. Grimme, Chem. Sci., 2017, 8, 4879.
     DOI: 10.1039/c7sc00601b
   * J. Koopman and S. Grimme, ACS Omega 2019, 4, 12, 15120-15133.
     DOI: 10.1021/acsomega.9b02011
   
   for metadynamics refer to:
   * S. Grimme, J. Chem. Theory Comput., 2019, 155, 2847-2862
     DOI: 10.1021/acs.jctc.9b00143
   
   for SPH calculations refer to:
   * S. Spicher and S. Grimme, J. Chem. Theory Comput., 2021, 17, 1701-1714
     DOI: 10.1021/acs.jctc.0c01306
   
   with help from (in alphabetical order)
   P. Atkinson, C. Bannwarth, F. Bohle, G. Brandenburg, E. Caldeweyher
   M. Checinski, S. Dohm, S. Ehlert, S. Ehrlich, I. Gerasimov, J. Koopman
   C. Lavigne, S. Lehtola, F. März, M. Müller, F. Musil, H. Neugebauer
   J. Pisarek, C. Plett, P. Pracht, J. Seibert, P. Shushkov, S. Spicher
   M. Stahn, M. Steiner, T. Strunk, J. Stückrath, T. Rose, and J. Unsleber
   
 * started run on 2022/09/13 at 13:45:09.772     

           -------------------------------------------------
          |                Calculation Setup                |
           -------------------------------------------------

          program call               : xtb isk.xyz --charge 0 --opt extreme
          coordinate file            : isk.xyz
          number of atoms            :                    21
          number of electrons        :                    74
          charge                     :                     0
          spin                       :                   0.0
          first test random number   :      0.21536791198544

   ID    Z sym.   atoms
    1    6 C1     1
    2    6 C2     2
    3    6 C3     3
    4    6 C4     4
    5    6 C5     5
    6    6 C6     6
    7    7 N1     7
    8    6 C7     8
    9    6 C8     9
   10    1 H1     10
   11    1 H2     11
   12    1 H3     12
   13    1 H4     13
   14    1 H5     14
   15    1 H6     15
   16    8 O1     16, 18
   17   16 S1     17
   18    8 O2     19
   19    8 O3     20
   20   19 K1     21

           -------------------------------------------------
          |                 G F N 2 - x T B                 |
           -------------------------------------------------

        Reference                      10.1021/acs.jctc.8b01176
      * Hamiltonian:
        H0-scaling (s, p, d)           1.850000    2.230000    2.230000
        zeta-weighting                 0.500000
      * Dispersion:
        s8                             2.700000
        a1                             0.520000
        a2                             5.000000
        s9                             5.000000
      * Repulsion:
        kExp                           1.500000    1.000000
        rExp                           1.000000
      * Coulomb:
        alpha                          2.000000
        third order                    shell-resolved
        anisotropic                    true
        a3                             3.000000
        a5                             4.000000
        cn-shift                       1.200000
        cn-exp                         4.000000
        max-rad                        5.000000


          ...................................................
          :                      SETUP                      :
          :.................................................:
          :  # basis functions                  72          :
          :  # atomic orbitals                  71          :
          :  # shells                           37          :
          :  # electrons                        74          :
          :  max. iterations                   250          :
          :  Hamiltonian                  GFN2-xTB          :
          :  restarted?                      false          :
          :  GBSA solvation                  false          :
          :  PC potential                    false          :
          :  electronic temp.          300.0000000     K    :
          :  accuracy                    1.0000000          :
          :  -> integral cutoff          0.2500000E+02      :
          :  -> integral neglect         0.1000000E-07      :
          :  -> SCF convergence          0.1000000E-05 Eh   :
          :  -> wf. convergence          0.1000000E-03 e    :
          :  Broyden damping             0.4000000          :
          ...................................................

 iter      E             dE          RMSdq      gap      omega  full diag
   1    -42.4078913 -0.424079E+02  0.115E+01    1.04       0.0  T
   2    -43.3401182 -0.932227E+00  0.121E+01    0.94       1.0  T
   3    -43.4179154 -0.777972E-01  0.842E+00    2.12       1.0  T
   4    -43.4420374 -0.241220E-01  0.262E+00    2.86       1.0  T
   5    -43.4660842 -0.240469E-01  0.162E+00    1.84       1.0  T
   6    -43.4696523 -0.356808E-02  0.638E-01    0.84       1.0  T
   7    -43.4718559 -0.220354E-02  0.258E-01    0.65       1.0  T
   8    -43.4725597 -0.703828E-03  0.181E-01    0.73       1.0  T
   9    -43.4727148 -0.155102E-03  0.942E-02    0.83       1.0  T
  10    -43.4727409 -0.261329E-04  0.731E-02    0.82       1.0  T
  11    -43.4727542 -0.132979E-04  0.322E-02    0.82       1.0  T
  12    -43.4727642 -0.994898E-05  0.126E-02    0.86       1.7  T
  13    -43.4727644 -0.278947E-06  0.600E-03    0.86       3.6  T
  14    -43.4727647 -0.304839E-06  0.175E-03    0.86      12.5  T
  15    -43.4727648 -0.477262E-08  0.680E-04    0.86      32.1  T
  16    -43.4727648  0.525340E-09  0.485E-04    0.86      45.0  T

   *** convergence criteria satisfied after 16 iterations ***

         #    Occupation            Energy/Eh            Energy/eV
      -------------------------------------------------------------
         1        2.0000           -0.7444662             -20.2580
       ...           ...                  ...                  ...
        31        2.0000           -0.4165121             -11.3339
        32        2.0000           -0.4145242             -11.2798
        33        2.0000           -0.4138724             -11.2620
        34        2.0000           -0.4085848             -11.1182
        35        2.0000           -0.4052459             -11.0273
        36        2.0000           -0.3825054             -10.4085
        37        2.0000           -0.3570074              -9.7147 (HOMO)
        38        0.0000           -0.3255224              -8.8579 (LUMO)
        39                         -0.2295959              -6.2476
        40                         -0.1973160              -5.3692
        41                         -0.1526558              -4.1540
        42                         -0.1131206              -3.0782
       ...                                ...                  ...
        71                          1.2888900              35.0725
      -------------------------------------------------------------
                  HL-Gap            0.0314850 Eh            0.8568 eV
             Fermi-level           -0.3412649 Eh           -9.2863 eV

 SCC (total)                   0 d,  0 h,  0 min,  0.046 sec
 SCC setup                      ...        0 min,  0.000 sec (  0.242%)
 Dispersion                     ...        0 min,  0.000 sec (  0.240%)
 classical contributions        ...        0 min,  0.000 sec (  0.072%)
 integral evaluation            ...        0 min,  0.004 sec (  8.958%)
 iterations                     ...        0 min,  0.032 sec ( 68.477%)
 molecular gradient             ...        0 min,  0.010 sec ( 21.771%)
 printout                       ...        0 min,  0.000 sec (  0.222%)

         :::::::::::::::::::::::::::::::::::::::::::::::::::::
         ::                     SUMMARY                     ::
         :::::::::::::::::::::::::::::::::::::::::::::::::::::
         :: total energy             -42.972573561437 Eh    ::
         :: gradient norm              0.000040274878 Eh/a0 ::
         :: HOMO-LUMO gap              0.856750166479 eV    ::
         ::.................................................::
         :: SCC energy               -43.472764753075 Eh    ::
         :: -> isotropic ES            0.164613087688 Eh    ::
         :: -> anisotropic ES         -0.033382576245 Eh    ::
         :: -> anisotropic XC          0.005819940996 Eh    ::
         :: -> dispersion             -0.024780243769 Eh    ::
         :: repulsion energy           0.500213105721 Eh    ::
         :: add. restraining           0.000000000000 Eh    ::
         :: total charge               0.000000000000 e     ::
         :::::::::::::::::::::::::::::::::::::::::::::::::::::

      ----------------------------------------------------------- 
     |                   =====================                   |
     |                        A N C O P T                        |
     |                   =====================                   |
     |               Approximate Normal Coordinate               |
     |                Rational Function Optimizer                |
      ----------------------------------------------------------- 

          ...................................................
          :                      SETUP                      :
          :.................................................:
          :   optimization level           extreme          :
          :   max. optcycles                   420          :
          :   ANC micro-cycles                  20          :
          :   degrees of freedom                57          :
          :.................................................:
          :   RF solver                   davidson          :
          :   write xtbopt.log                true          :
          :   linear?                        false          :
          :   energy convergence         0.5000000E-07 Eh   :
          :   grad. convergence          0.5000000E-04 Eh/α :
          :   maximium RF displ.         1.0000000          :
          :   Hlow (freq-cutoff)         0.1000000E-01      :
          :   Hmax (freq-cutoff)         5.0000000          :
          :   S6 in model hess.         20.0000000          :
          ...................................................

generating ANC from model Hessian ...
Using Lindh-Hessian (1995)
 Shifting diagonal of input Hessian by    8.4454708366532797E-003
 Lowest  eigenvalues of input Hessian
    0.000000    0.000000    0.000000    0.000000    0.000000    0.000000
    0.010000    0.012193    0.012617    0.017856    0.019785    0.022135
    0.027028    0.031519    0.034477    0.039825    0.062344    0.066402
 Highest eigenvalues
    2.069480    2.123614    2.203640    2.658584    3.283370    3.680182


........................................................................
.............................. CYCLE    1 ..............................
........................................................................
   1    -43.4727648 -0.434728E+02  0.234E-04    0.86       0.0  T
   2    -43.4727648 -0.595350E-09  0.120E-04    0.86     181.3  T
   3    -43.4727648 -0.167972E-10  0.670E-05    0.86     325.7  T
     SCC iter.                  ...        0 min,  0.004 sec
     gradient                   ...        0 min,  0.010 sec
 * total energy  :   -42.9725736 Eh     change       -0.1457430E-08 Eh
   gradient norm :     0.0000397 Eh/α   predicted     0.0000000E+00 (-100.00%)
   displ. norm   :     0.0000595 α      lambda        0.0000000E+00
   maximum displ.:     0.0000274 α      in ANC's #56, #55, #29, ...

   *** GEOMETRY OPTIMIZATION CONVERGED AFTER 1 ITERATIONS ***

------------------------------------------------------------------------
 total energy gain   :        -0.0000000 Eh       -0.0000 kcal/mol
 total RMSD          :         0.0000000 a0        0.0000 Å
 total power (kW/mol):        -0.0000038 (step)   -0.0002 (real)
------------------------------------------------------------------------

 ANCopt (total)                0 d,  0 h,  0 min,  0.022 sec
 optimizer setup                ...        0 min,  0.000 sec (  0.240%)
 model hessian                  ...        0 min,  0.003 sec ( 11.495%)
 ANC generation                 ...        0 min,  0.001 sec (  2.488%)
 coordinate transformation      ...        0 min,  0.000 sec (  0.016%)
 single point calculation       ...        0 min,  0.019 sec ( 84.593%)
 optimization log               ...        0 min,  0.000 sec (  0.331%)
 hessian update                 ...        0 min,  0.000 sec (  0.004%)
 rational function              ...        0 min,  0.000 sec (  0.168%)

================
 final structure:
================
21
 xtb: 6.4.1 (1a3296197974bf90c4de5929bcb902c290d06ae5)
C1       -0.00139079466617    0.63876397211899    0.15702868180924
C2        0.83414312472715   -0.45258611147098    0.22857076873149
C3        2.22333631394902   -0.31298617466459    0.14433355824422
C4        2.81302390568035    0.92227164577754   -0.01366395442947
C5        1.97807664301731    2.03181794757791   -0.08710249292113
C6        0.56983499762708    1.90104849765644   -0.00285176337428
N1        2.26712823746840    3.35471719338551   -0.23907203333452
C7        1.09195791561185    4.07484918203615   -0.25516414536956
C8        0.03657000579974    3.22522166690821   -0.11388184489264
H1       -1.07314274769018    0.53818305839154    0.22123421540419
H2        0.41625901617525   -1.44060725710597    0.35228045141579
H3        2.84436162922098   -1.19450302769882    0.20478652859023
H4        3.88596255159416    1.02805726021761   -0.07853625896189
H5        3.18761152024807    3.74906358945054   -0.32642805089873
H6        1.08171273704852    5.14294944424526   -0.36596558653734
O1       -1.29812417925640    3.49866622696253   -0.07567475594996
S1       -1.78248212550474    5.01898530212897   -0.19905789632113
O1       -3.20905476299819    4.98153317403419   -0.12111817184357
O2       -1.27441493483372    5.56908309990848   -1.46038157525251
O3       -1.15260262064092    5.79700767906283    0.87309146667310
K1       -1.03407832457756    7.60643994207839   -0.49118180578115

 Bond Distances (Angstroems)
 ---------------------------
C1-C2=1.3763         C1-C6=1.3947         C1-H10=1.0784        C2-C1=1.3763         C2-C3=1.3987         C2-H11=1.0799        
C3-C2=1.3987         C3-C4=1.3779         C3-H12=1.0800        C4-C3=1.3779         C4-C5=1.3905         C4-H13=1.0801        
C5-C4=1.3905         C5-C6=1.4168         C5-N7=1.3626         C6-C1=1.3947         C6-C5=1.4168         C6-C9=1.4318         
N7-C5=1.3626         N7-C8=1.3784         N7-H14=1.0052        C8-N7=1.3784         C8-C9=1.3622         C8-H15=1.0739        
C9-C6=1.4318         C9-C8=1.3622         C9-O16=1.3630        H10-C1=1.0784        H11-C2=1.0799        H12-C3=1.0800        
H13-C4=1.0801        H14-N7=1.0052        H15-C8=1.0739        O16-C9=1.3630        O16-S17=1.6004       S17-O16=1.6004       
S17-O18=1.4292       S17-O19=1.4669       S17-O20=1.4668       S17-K21=2.7093       O18-S17=1.4292       O18-K21=3.4289       
O19-S17=1.4669       O19-K21=2.2689       O20-S17=1.4668       O20-K21=2.2692       K21-S17=2.7093       K21-O18=3.4289       
K21-O19=2.2689       K21-O20=2.2692       
 C  H  Rav=1.0784 sigma=0.0024  Rmin=1.0739  Rmax=1.0801     5
 C  C  Rav=1.3936 sigma=0.0211  Rmin=1.3622  Rmax=1.4318     8
 N  H  Rav=1.0052 sigma=0.0000  Rmin=1.0052  Rmax=1.0052     1
 N  C  Rav=1.3705 sigma=0.0079  Rmin=1.3626  Rmax=1.3784     2
 O  C  Rav=1.3630 sigma=0.0000  Rmin=1.3630  Rmax=1.3630     1
 S  O  Rav=1.4908 sigma=0.0651  Rmin=1.4292  Rmax=1.6004     4
 K  O  Rav=2.6557 sigma=0.5468  Rmin=2.2689  Rmax=3.4289     3
 K  S  Rav=2.7093 sigma=0.0000  Rmin=2.7093  Rmax=2.7093     1

 selected bond angles (degree)
 --------------------
C6-C1-C2=118.36                H10-C1-C2=121.76               H10-C1-C6=119.89               C3-C2-C1=121.38                
H11-C2-C1=119.77               H11-C2-C3=118.85               C4-C3-C2=121.43                H12-C3-C2=119.10               
H12-C3-C4=119.48               C5-C4-C3=117.67                H13-C4-C3=121.32               H13-C4-C5=121.01               
C6-C5-C4=121.33                N7-C5-C4=130.78                N7-C5-C6=107.88                C5-C6-C1=119.83                
C9-C6-C1=133.90                C9-C6-C5=106.27                C8-N7-C5=109.13                H14-N7-C5=125.79               
H14-N7-C8=125.08               C9-C8-N7=109.48                H15-C8-N7=121.94               H15-C8-C9=128.58               
C8-C9-C6=107.24                O16-C9-C6=123.24               O16-C9-C8=129.53               

 selected dihedral angles (degree)
 ---------------------------------
C3-C2-C1-C6=  0.00            C3-C2-C1-H10=180.00           H11-C2-C1-C6=180.00           H11-C2-C1-H10=  0.00          
C4-C3-C2-C1=  0.00            C4-C3-C2-H11=180.00           H12-C3-C2-C1=180.00           H12-C3-C2-H11=  0.00          
C5-C4-C3-C2=  0.00            C5-C4-C3-H12=180.00           H13-C4-C3-C2=180.00           H13-C4-C3-H12=  0.00          
C6-C5-C4-C3=  0.00            C6-C5-C4-H13=180.00           N7-C5-C4-C3=180.00            N7-C5-C4-H13=  0.00           
C5-C6-C1-C2=  0.00            C5-C6-C1-H10=180.00           C9-C6-C1-C2=179.99            C9-C6-C1-H10=  0.00           
C1-C6-C5-C4=  0.00            C1-C6-C5-N7=180.00            C9-C6-C5-C4=180.01            C9-C6-C5-N7=  0.00            
C8-N7-C5-C4=179.99            C8-N7-C5-C6=  0.00            H14-N7-C5-C4=  0.00           H14-N7-C5-C6=180.01           
C9-C8-N7-C5=  0.00            C9-C8-N7-H14=179.99           H15-C8-N7-C5=180.02           H15-C8-N7-H14=  0.00          
C8-C9-C6-C1=180.00            C8-C9-C6-C5=  0.00            O16-C9-C6-C1=  0.00           O16-C9-C6-C5=179.99           
C6-C9-C8-N7=  0.00            C6-C9-C8-H15=179.99           O16-C9-C8-N7=180.01           O16-C9-C8-H15=  0.00          
           -------------------------------------------------
          |                Final Singlepoint                |
           -------------------------------------------------

          ...................................................
          :                      SETUP                      :
          :.................................................:
          :  # basis functions                  72          :
          :  # atomic orbitals                  71          :
          :  # shells                           37          :
          :  # electrons                        74          :
          :  max. iterations                   250          :
          :  Hamiltonian                  GFN2-xTB          :
          :  restarted?                      false          :
          :  GBSA solvation                  false          :
          :  PC potential                    false          :
          :  electronic temp.          300.0000000     K    :
          :  accuracy                    1.0000000          :
          :  -> integral cutoff          0.2500000E+02      :
          :  -> integral neglect         0.1000000E-07      :
          :  -> SCF convergence          0.1000000E-05 Eh   :
          :  -> wf. convergence          0.1000000E-03 e    :
          :  Broyden damping             0.4000000          :
          ...................................................

 iter      E             dE          RMSdq      gap      omega  full diag
   1    -43.4727648 -0.434728E+02  0.409E-05    0.86       0.0  T
   2    -43.4727648 -0.763833E-11  0.248E-05    0.86     878.4  T
   3    -43.4727648 -0.624567E-11  0.164E-05    0.86    1328.9  T

   *** convergence criteria satisfied after 3 iterations ***

         #    Occupation            Energy/Eh            Energy/eV
      -------------------------------------------------------------
         1        2.0000           -0.7444698             -20.2581
       ...           ...                  ...                  ...
        31        2.0000           -0.4165149             -11.3339
        32        2.0000           -0.4145270             -11.2799
        33        2.0000           -0.4138745             -11.2621
        34        2.0000           -0.4085869             -11.1182
        35        2.0000           -0.4052489             -11.0274
        36        2.0000           -0.3825081             -10.4086
        37        2.0000           -0.3570090              -9.7147 (HOMO)
        38        0.0000           -0.3255087              -8.8575 (LUMO)
        39                         -0.2295977              -6.2477
        40                         -0.1973190              -5.3693
        41                         -0.1526572              -4.1540
        42                         -0.1131150              -3.0780
       ...                                ...                  ...
        71                          1.2888880              35.0724
      -------------------------------------------------------------
                  HL-Gap            0.0315002 Eh            0.8572 eV
             Fermi-level           -0.3412588 Eh           -9.2861 eV

 SCC (total)                   0 d,  0 h,  0 min,  0.029 sec
 SCC setup                      ...        0 min,  0.000 sec (  0.315%)
 Dispersion                     ...        0 min,  0.000 sec (  0.276%)
 classical contributions        ...        0 min,  0.000 sec (  0.104%)
 integral evaluation            ...        0 min,  0.004 sec ( 14.777%)
 iterations                     ...        0 min,  0.014 sec ( 47.995%)
 molecular gradient             ...        0 min,  0.010 sec ( 36.201%)
 printout                       ...        0 min,  0.000 sec (  0.303%)

         :::::::::::::::::::::::::::::::::::::::::::::::::::::
         ::                     SUMMARY                     ::
         :::::::::::::::::::::::::::::::::::::::::::::::::::::
         :: total energy             -42.972573562902 Eh    ::
         :: gradient norm              0.000039507904 Eh/a0 ::
         :: HOMO-LUMO gap              0.857165015151 eV    ::
         ::.................................................::
         :: SCC energy               -43.472764754540 Eh    ::
         :: -> isotropic ES            0.164629579245 Eh    ::
         :: -> anisotropic ES         -0.033383242816 Eh    ::
         :: -> anisotropic XC          0.005819959064 Eh    ::
         :: -> dispersion             -0.024780300815 Eh    ::
         :: repulsion energy           0.500213105721 Eh    ::
         :: add. restraining           0.000000000000 Eh    ::
         :: total charge               0.000000000000 e     ::
         :::::::::::::::::::::::::::::::::::::::::::::::::::::

           -------------------------------------------------
          |                Property Printout                |
           -------------------------------------------------

    * Orbital Energies and Occupations

         #    Occupation            Energy/Eh            Energy/eV
      -------------------------------------------------------------
         1        2.0000           -0.7444698             -20.2581
       ...           ...                  ...                  ...
        25        2.0000           -0.4640530             -12.6275
        26        2.0000           -0.4541839             -12.3590
        27        2.0000           -0.4399595             -11.9719
        28        2.0000           -0.4374343             -11.9032
        29        2.0000           -0.4369336             -11.8896
        30        2.0000           -0.4233725             -11.5206
        31        2.0000           -0.4165149             -11.3339
        32        2.0000           -0.4145270             -11.2799
        33        2.0000           -0.4138745             -11.2621
        34        2.0000           -0.4085869             -11.1182
        35        2.0000           -0.4052489             -11.0274
        36        2.0000           -0.3825081             -10.4086
        37        2.0000           -0.3570090              -9.7147 (HOMO)
        38        0.0000           -0.3255087              -8.8575 (LUMO)
        39                         -0.2295977              -6.2477
        40                         -0.1973190              -5.3693
        41                         -0.1526572              -4.1540
        42                         -0.1131150              -3.0780
        43                         -0.0807559              -2.1975
        44                         -0.0715643              -1.9474
        45                         -0.0666125              -1.8126
        46                          0.0036694               0.0998
        47                          0.0262494               0.7143
        48                          0.0499117               1.3582
       ...                                ...                  ...
        71                          1.2888880              35.0724
      -------------------------------------------------------------
                  HL-Gap            0.0315002 Eh            0.8572 eV
             Fermi-level           -0.3412588 Eh           -9.2861 eV

     #   Z          covCN         q      C6AA      α(0)
     1   6 C1       2.910    -0.027    28.677     8.781
     2   6 C2       2.920    -0.041    29.010     8.832
     3   6 C3       2.924    -0.035    28.875     8.812
     4   6 C4       2.908    -0.052    29.297     8.875
     5   6 C5       3.079     0.045    26.908     8.504
     6   6 C6       3.107    -0.020    28.358     8.725
     7   7 N1       2.779    -0.104    23.271     7.165
     8   6 C7       3.020    -0.039    28.935     8.824
     9   6 C8       3.118     0.118    25.250     8.230
    10   1 H1       0.926     0.045     2.379     2.412
    11   1 H2       0.926     0.036     2.504     2.475
    12   1 H3       0.926     0.035     2.511     2.478
    13   1 H4       0.926     0.031     2.573     2.508
    14   1 H5       0.860     0.171     1.269     1.765
    15   1 H6       0.953     0.046     2.370     2.407
    16   8 O1       1.712    -0.417    21.167     6.212
    17  16 S1       4.365     1.557    92.080    16.150
    18   8 O1       0.995    -0.646    27.179     6.993
    19   8 O2       1.503    -0.748    29.136     7.279
    20   8 O3       1.503    -0.748    29.135     7.279
    21  19 K1       2.198     0.792   152.266    39.096

 Mol. C6AA /au·bohr⁶  :       9264.508887
 Mol. C8AA /au·bohr⁸  :     342908.046736
 Mol. α(0) /au        :        173.802458


Wiberg/Mayer (AO) data.
largest (>0.10) Wiberg bond orders for each atom

 ---------------------------------------------------------------------------
     #   Z sym  total        # sym  WBO       # sym  WBO       # sym  WBO
 ---------------------------------------------------------------------------
     1   6 C1   3.991 --     2 C2   1.506     6 C6   1.332    10 H1   0.969
                             4 C4   0.114
     2   6 C2   3.990 --     1 C1   1.506     3 C3   1.369    11 H2   0.971
     3   6 C3   3.991 --     4 C4   1.495     2 C2   1.369    12 H3   0.972
     4   6 C4   3.987 --     3 C3   1.495     5 C5   1.334    13 H4   0.968
                             1 C1   0.114
     5   6 C5   3.956 --     4 C4   1.334     6 C6   1.245     7 N1   1.180
     6   6 C6   3.975 --     1 C1   1.332     5 C5   1.245     9 C8   1.175
     7   7 N1   3.526 --     5 C5   1.180     8 C7   1.174    14 H5   0.943
     8   6 C7   3.946 --     9 C8   1.559     7 N1   1.174    15 H6   0.949
     9   6 C8   3.896 --     8 C7   1.559     6 C6   1.175    16 O1   0.998
    10   1 H1   0.998 --     1 C1   0.969
    11   1 H2   0.998 --     2 C2   0.971
    12   1 H3   0.998 --     3 C3   0.972
    13   1 H4   0.998 --     4 C4   0.968
    14   1 H5   0.969 --     7 N1   0.943
    15   1 H6   0.997 --     8 C7   0.949
    16   8 O1   2.200 --     9 C8   0.998    17 S1   0.876
    17  16 S1   4.941 --    18 O1   1.466    20 O3   1.308    19 O2   1.308
                            16 O1   0.876
    18   8 O1   1.829 --    17 S1   1.466    19 O2   0.107    20 O3   0.107
    19   8 O2   1.746 --    17 S1   1.308    21 K1   0.156    18 O1   0.107
                            20 O3   0.102
    20   8 O3   1.746 --    17 S1   1.308    21 K1   0.156    18 O1   0.107
                            19 O2   0.102
    21  19 K1   0.387 --    19 O2   0.156    20 O3   0.156
 ---------------------------------------------------------------------------

Topologies differ in total number of bonds
Writing topology from bond orders to xtbtopo.mol

molecular dipole:
                 x           y           z       tot (Debye)
 q only:        2.193       2.631      -0.369
   full:        2.188       2.695      -0.377       8.875
molecular quadrupole (traceless):
                xx          xy          yy          xz          yz          zz
 q only:      -38.061      19.973      74.563      -0.668     -10.500     -36.501
  q+dip:      -35.167      22.202      74.451      -1.191     -10.878     -39.284
   full:      -37.049      22.070      74.940      -1.010     -10.756     -37.891

           -------------------------------------------------
          |                Geometry Summary                 |
           -------------------------------------------------

      molecular mass/u    :      251.3009429
   center of mass at/Å    :       -0.2057280       3.8806227      -0.1622967
  moments of inertia/u·Å² :        0.3723127E+03   0.1985812E+04   0.2269930E+04
rotational constants/cm⁻¹ :        0.4527816E-01   0.8489037E-02   0.7426500E-02

 * 24 selected distances

     #   Z          #   Z                                           value/Å
     1   6 C1       2   6 C2                                      1.3763285
     2   6 C2       3   6 C3                                      1.3987286
     3   6 C3       4   6 C4                                      1.3778812
     4   6 C4       5   6 C5                                      1.3905478
     1   6 C1       6   6 C6                                      1.3947125
     5   6 C5       6   6 C6                                      1.4168075
     5   6 C5       7   7 N1                                      1.3626107
     7   7 N1       8   6 C7                                      1.3783593
     6   6 C6       9   6 C8                                      1.4318288
     8   6 C7       9   6 C8                                      1.3622302
     1   6 C1      10   1 H1                                      1.0783743
     2   6 C2      11   1 H2                                      1.0798690
     3   6 C3      12   1 H3                                      1.0799995
     4   6 C4      13   1 H4                                      1.0800909
     7   7 N1      14   1 H5                                      1.0052013 (min)
     8   6 C7      15   1 H6                                      1.0738809
     9   6 C8      16   8 O1                                      1.3629528
    16   8 O1      17  16 S1                                      1.6003737
    17  16 S1      18   8 O1                                      1.4291909
    17  16 S1      19   8 O2                                      1.4668597
    17  16 S1      20   8 O3                                      1.4668235
    17  16 S1      21  19 K1                                      2.7093110 (max)
    19   8 O2      21  19 K1                                      2.2689056
    20   8 O3      21  19 K1                                      2.2692146

 * 8 distinct bonds (by element types)

   Z      Z             #   av. dist./Å        max./Å        min./Å
   1 H    6 C           5     1.0784429     1.0800909     1.0738809
   6 C    6 C           8     1.3936331     1.4318288     1.3622302
   1 H    7 N           1     1.0052013     1.0052013     1.0052013
   6 C    7 N           2     1.3704850     1.3783593     1.3626107
   6 C    8 O           1     1.3629528     1.3629528     1.3629528
   8 O   16 S           4     1.4908120     1.6003737     1.4291909
   8 O   19 K           2     2.2690601     2.2692146     2.2689056
  16 S   19 K           1     2.7093110     2.7093110     2.7093110


optimized geometry written to: xtbopt.xyz


           -------------------------------------------------
          | TOTAL ENERGY              -42.972573562902 Eh   |
          | GRADIENT NORM               0.000039507904 Eh/α |
          | HOMO-LUMO GAP               0.857165015151 eV   |
           -------------------------------------------------

------------------------------------------------------------------------
 * finished run on 2022/09/13 at 13:45:09.878     
------------------------------------------------------------------------
 total:
 * wall-time:     0 d,  0 h,  0 min,  0.106 sec
 *  cpu-time:     0 d,  0 h,  0 min,  1.646 sec
 * ratio c/w:    15.594 speedup
 SCF:
 * wall-time:     0 d,  0 h,  0 min,  0.047 sec
 *  cpu-time:     0 d,  0 h,  0 min,  0.723 sec
 * ratio c/w:    15.533 speedup
 ANC optimizer:
 * wall-time:     0 d,  0 h,  0 min,  0.051 sec
 *  cpu-time:     0 d,  0 h,  0 min,  0.802 sec
 * ratio c/w:    15.621 speedup

