21
 energy: -43.024137218134 gnorm: 0.000073872204 xtb: 6.4.1 (1a3296197974bf90c4de5929bcb902c290d06ae5)
C         2.67247094369732    1.36328099783733    0.00929403755351
C         3.98605406849519    1.17278106828437   -0.35118965440326
C         4.54025734454273   -0.11085836882999   -0.43912227299286
C         3.79491149002054   -1.23755705227076   -0.17354846442894
C         2.46286500042984   -1.05972497640248    0.19092653088078
C         1.89233427109534    0.23704082913130    0.28354172268036
N         1.49423243816323   -1.97299332455137    0.48854128141777
C         0.32952902559358   -1.31205854814068    0.78487714481359
C         0.53521576547604    0.04030493863594    0.68142622451213
H         2.23292437076076    2.34683349898894    0.07901376172910
H         4.60649441868252    2.02753712665242   -0.57136205205323
H         5.57609269986076   -0.21096040006119   -0.72236535138745
H         4.22636770778275   -2.22300469236605   -0.24260956402842
H         1.63076320050778   -2.97037377654596    0.57471495030153
H        -0.55446536476704   -1.82380447050494    1.12343290707744
O        -0.39035253937807    1.06108681835127    0.90367330714454
S        -1.67610992840088    1.09236423735905   -0.03695535246431
O        -2.30714371978230    2.35509515618112    0.23362687696296
O        -2.49094282139034   -0.07530063120308    0.30414046330372
O        -1.21121366363142    0.91771047347753   -1.41407483925433
K        -2.08305376550628   -1.21872959167087   -1.68858635931969
