21
 energy: -43.021990335312 gnorm: 0.000142658906 xtb: 6.4.1 (1a3296197974bf90c4de5929bcb902c290d06ae5)
C         2.87633069010000    1.40933727890000   -0.00496625430000
C         4.23288040660000    1.18080401130000   -0.01047935450000
C         4.75353032420000   -0.11901673090000   -0.00903225140000
C         3.93224529100000   -1.22402875110000   -0.00211552710000
C         2.55685443250000   -1.00765983350000    0.00360518280000
C         2.02041236230000    0.30563425770000    0.00220997600000
N         1.51827363920000   -1.89020878100000    0.01121065300000
C         0.33828532560000   -1.19131429430000    0.01527618920000
C         0.59849198330000    0.14950192810000    0.00985718820000
H         2.46354791120000    2.40641691140000   -0.00589130640000
H         4.91327646400000    2.01806390920000   -0.01593228860000
H         5.82401406090000   -0.25048956560000   -0.01339813570000
H         4.33784391020000   -2.22239197150000   -0.00101870510000
H         1.59543320080000   -2.89649155790000    0.01470548790000
H        -0.62234753470000   -1.68306381510000    0.02336766910000
O        -0.28074226580000    1.22789970960000    0.01142692710000
S        -1.84719651900000    0.99830412500000    0.00169496260000
O        -2.40542404370000    2.32272074800000    0.00046957230000
O        -2.19501923030000    0.20039820230000    1.17855788770000
O        -2.18063339180000    0.20388755960000   -1.18166563570000
K        -3.16281775110000   -1.53948081550000   -0.01038757170000
21
 energy: -43.021990537317 gnorm: 0.000073474481 xtb: 6.4.1 (1a3296197974bf90c4de5929bcb902c290d06ae5)
C         2.87652228699757    1.40939073696627   -0.00500031612439
C         4.23304090566442    1.18071430599105   -0.01051428178702
C         4.75359181825163   -0.11912045833478   -0.00907489391571
C         3.93219891520404   -1.22402232120374   -0.00216098445728
C         2.55683262395315   -1.00750890146110    0.00359229067168
C         2.02044435861571    0.30580758055250    0.00221597654039
N         1.51822993652962   -1.88999962782613    0.01134507373738
C         0.33829592857345   -1.19113452078546    0.01540487566966
C         0.59847652765068    0.14971890731795    0.01002297658671
H         2.46391464502793    2.40652862180386   -0.00610211056922
H         4.91352586314796    2.01789630949929   -0.01616511273469
H         5.82408098733637   -0.25069195473809   -0.01353071277730
H         4.33774638825613   -2.22241500616283   -0.00097725681418
H         1.59532441748683   -2.89621936712953    0.01493017629941
H        -0.62229824035045   -1.68287650596726    0.02362644043323
O        -0.28095877914519    1.22802206855166    0.01180835351779
S        -1.84736578346661    0.99796490459274    0.00178120351285
O        -2.40607481128100    2.32216173571370    0.00067120277183
O        -2.19506315219479    0.19976308350022    1.17852234355821
O        -2.18026674394918    0.20365365737147   -1.18181312518800
K        -3.16295882680826   -1.53881072355177   -0.01108745353135
21
 energy: -43.021990657072 gnorm: 0.000080188114 xtb: 6.4.1 (1a3296197974bf90c4de5929bcb902c290d06ae5)
C         2.87678734603338    1.40950776565586   -0.00518141180752
C         4.23327714136736    1.18063022091319   -0.01081528135961
C         4.75368354303226   -0.11926473663918   -0.00924682889013
C         3.93211282020078   -1.22403317200789   -0.00218997422626
C         2.55678704825250   -1.00730005993672    0.00364865922392
C         2.02049868352289    0.30607163865985    0.00225292012341
N         1.51814052203318   -1.88971909120678    0.01152521861544
C         0.33828029725950   -1.19079898094226    0.01583652855374
C         0.59851324493624    0.15004934445492    0.01036179563355
H         2.46442536778494    2.40674703763320   -0.00625849487869
H         4.91388085336004    2.01771721652862   -0.01645097218295
H         5.82415415901503   -0.25098761007078   -0.01368857157654
H         4.33751761883956   -2.22248364377146   -0.00101267012466
H         1.59513316603763   -2.89594524190774    0.01516827470461
H        -0.62233475696659   -1.68247573254364    0.02432940169788
O        -0.28112266043966    1.22823896992703    0.01245191881225
S        -1.84746728554864    0.99755807108844    0.00188437495885
O        -2.40690346620540    2.32143409822026    0.00094475308356
O        -2.19516856241780    0.19887443304359    1.17832644743736
O        -2.17961142058337    0.20340990362559   -1.18204312799043
K        -3.16334439401384   -1.53840790602409   -0.01234829440778
21
 energy: -43.021990753730 gnorm: 0.000078317779 xtb: 6.4.1 (1a3296197974bf90c4de5929bcb902c290d06ae5)
C         2.87704766717099    1.40962758719537   -0.00524032252735
C         4.23350681545821    1.18054745319145   -0.01102048075009
C         4.75375950721947   -0.11940889413531   -0.00948145122990
C         3.93201170287311   -1.22404399607830   -0.00233495400551
C         2.55672739601723   -1.00709252757527    0.00366331753611
C         2.02055770888996    0.30634073927130    0.00237646408387
N         1.51802612554623   -1.88943699404800    0.01180218817019
C         0.33823728541384   -1.19041846721058    0.01639678743006
C         0.59857127586608    0.15040636109627    0.01081218786669
H         2.46492357181059    2.40696601915270   -0.00645080317922
H         4.91422468791530    2.01754009419988   -0.01696460235406
H         5.82420665576282   -0.25128742346129   -0.01401624481462
H         4.33723877223407   -2.22256420408785   -0.00107186026080
H         1.59491498195781   -2.89567428483241    0.01555972413304
H        -0.62242081362533   -1.68197942630228    0.02527577931764
O        -0.28120071517999    1.22850940923290    0.01329710206224
S        -1.84747520313509    0.99720119136649    0.00199021719223
O        -2.40767670799326    2.32074790447569    0.00126196744683
O        -2.19537355313242    0.19793822361567    1.17799125691475
O        -2.17878009382890    0.20329418417505   -1.18234474991551
K        -3.16378780174073   -1.53839042454148   -0.01400685771658
21
 energy: -43.021990848892 gnorm: 0.000068892805 xtb: 6.4.1 (1a3296197974bf90c4de5929bcb902c290d06ae5)
C         2.87723579824086    1.40972104797527   -0.00538767983627
C         4.23367238914629    1.18048583391356   -0.01139513807132
C         4.75380027540755   -0.11952023457065   -0.00978822664215
C         3.93191922184290   -1.22405576570192   -0.00245267869004
C         2.55666533787181   -1.00694099775912    0.00374791685384
C         2.02060323195405    0.30654411712816    0.00250924021466
N         1.51790935897385   -1.88921942580744    0.01213090279265
C         0.33818217973120   -1.19010083238864    0.01707619941616
C         0.59862090303654    0.15069762869442    0.01138401903648
H         2.46527760830103    2.40712993813803   -0.00652137451923
H         4.91447537254573    2.01740889634465   -0.01743921813620
H         5.82422839918440   -0.25152061706107   -0.01442136143582
H         4.33698527972382   -2.22263971943340   -0.00122176202018
H         1.59472049941678   -2.89546636085326    0.01598267685494
H        -0.62252455884281   -1.68153284241934    0.02638292579096
O        -0.28120216472069    1.22876742213672    0.01426989262292
S        -1.84740859003424    0.99696390956647    0.00207805757708
O        -2.40822354661424    2.32025472767683    0.00155313743007
O        -2.19571964601539    0.19713756100541    1.17756762411984
O        -2.17788416965692    0.20336932203670   -1.18270632582742
K        -3.16409391399252   -1.53866108392139   -0.01585416213095
21
 energy: -43.021990941129 gnorm: 0.000066864086 xtb: 6.4.1 (1a3296197974bf90c4de5929bcb902c290d06ae5)
C         2.87729297455375    1.40976120851491   -0.00542031128186
C         4.23372126494948    1.18046502345252   -0.01168770260072
C         4.75379118769442   -0.11956632857979   -0.01012950013164
C         3.93186155164837   -1.22406695073798   -0.00261985957282
C         2.55661873344692   -1.00689224403323    0.00382534094612
C         2.02061704164642    0.30661844588292    0.00269226763693
N         1.51782798294225   -1.88913298451311    0.01245290988921
C         0.33813626300443   -1.18995636433415    0.01775712532740
C         0.59863749364966    0.15082622044458    0.01194981007547
H         2.46537826922891    2.40719049813808   -0.00652460591295
H         4.91455570613461    2.01736272801682   -0.01788976932244
H         5.82421085819448   -0.25161748249596   -0.01488927205226
H         4.33684571994564   -2.22268395135803   -0.00141211495192
H         1.59461316925383   -2.89538739045605    0.01637376325186
H        -0.62260731196626   -1.68129749920708    0.02747618737226
O        -0.28115595059539    1.22891869138295    0.01518274902702
S        -1.84731407807280    0.99689417402095    0.00211199744383
O        -2.40839354354928    2.32008332799496    0.00172895529336
O        -2.19618846632374    0.19666096642272    1.17714432777154
O        -2.17711486941518    0.20364076992079   -1.18309140082788
K        -3.16409473087052   -1.53899833377681   -0.01753623198050
21
 energy: -43.021991044142 gnorm: 0.000074086423 xtb: 6.4.1 (1a3296197974bf90c4de5929bcb902c290d06ae5)
C         2.87725191206894    1.40975379186961   -0.00546732922225
C         4.23368050033942    1.18046751217094   -0.01198051011408
C         4.75374945839898   -0.11956491814091   -0.01045645751120
C         3.93183659030235   -1.22407645262028   -0.00279352082048
C         2.55658984951224   -1.00691736251895    0.00390288806676
C         2.02060241650564    0.30659556325275    0.00285854561807
N         1.51778482909401   -1.88914541644760    0.01276768843235
C         0.33810270692062   -1.18994868787710    0.01841884672515
C         0.59862461899140    0.15082905751292    0.01253140598747
H         2.46529617751322    2.40716631048500   -0.00646819631435
H         4.91450739029249    2.01737038810188   -0.01828971402137
H         5.82416925197167   -0.25161012764077   -0.01538096743507
H         4.33681346233290   -2.22269706157780   -0.00164390148690
H         1.59458292038228   -2.89540216005865    0.01675089224445
H        -0.62265981011557   -1.68124581425484    0.02854486631887
O        -0.28110091381022    1.22897283256014    0.01611961988447
S        -1.84722970159634    0.99693804250295    0.00212409769027
O        -2.40831006099825    2.32014043473506    0.00182080179067
O        -2.19679753948758    0.19641529270682    1.17673899698241
O        -2.17641555035617    0.20404953391476   -1.18349070130076
K        -3.16383924276203   -1.53926823397591   -0.01911268611447
21
 energy: -43.021991198985 gnorm: 0.000097754884 xtb: 6.4.1 (1a3296197974bf90c4de5929bcb902c290d06ae5)
C         2.87712532563009    1.40970890552113   -0.00545546987824
C         4.23356159531336    1.18049263789161   -0.01234182972848
C         4.75367470631478   -0.11952345855511   -0.01094003018402
C         3.93183189502656   -1.22408618019476   -0.00306748914979
C         2.55657057649561   -1.00700721635539    0.00399861726043
C         2.02056213330615    0.30648974167380    0.00312368792026
N         1.51776830141198   -1.88924408241342    0.01319553823101
C         0.33807795763931   -1.19006019687117    0.01933559566679
C         0.59858664224928    0.15072143182253    0.01333834113896
H         2.46505679698675    2.40707429392307   -0.00635850053714
H         4.91434791159573    2.01742694661779   -0.01881666715504
H         5.82410107737244   -0.25151510685872   -0.01608581075975
H         4.33686349310096   -2.22268548295611   -0.00200266331331
H         1.59461185887619   -2.89549985694579    0.01724362872230
H        -0.62268727569649   -1.68135506818235    0.03000758971931
O        -0.28103582302639    1.22894376311369    0.01740797213207
S        -1.84714969022041    0.99708534297311    0.00210594397659
O        -2.40800675309127    2.32039977185494    0.00184832497045
O        -2.19776659271705    0.19626202292706    1.17618778543917
O        -2.17552949357258    0.20469925009784   -1.18405844349828
K        -3.16332537749501   -1.53950493438376   -0.02117145557330
21
 energy: -43.021991434561 gnorm: 0.000137787978 xtb: 6.4.1 (1a3296197974bf90c4de5929bcb902c290d06ae5)
C         2.87692378066386    1.40962954349160   -0.00543429634285
C         4.23337427641150    1.18053699467035   -0.01285402352759
C         4.75357535073548   -0.11944505601940   -0.01163156101011
C         3.93185179189142   -1.22409349633443   -0.00348179473000
C         2.55656731160750   -1.00715212657307    0.00414909977427
C         2.02049857627296    0.30631095810663    0.00352414393478
N         1.51778968211345   -1.88942212106422    0.01383470313015
C         0.33806783969560   -1.19028524680574    0.02067966431385
C         0.59852673876886    0.15050847671233    0.01455162890757
H         2.46468443771414    2.40692319313410   -0.00613123852809
H         4.91409130876443    2.01752490545867   -0.01957319749928
H         5.82401357129581   -0.25134060263684   -0.01717696224196
H         4.33699937224458   -2.22264681881062   -0.00257904148162
H         1.59470849224355   -2.89567365977986    0.01795734329350
H        -0.62267745268330   -1.68163076039834    0.03212130110795
O        -0.28097761646638    1.22881540524704    0.01931853582494
S        -1.84709496164792    0.99732707315862    0.00205080814144
O        -2.40750088422072    2.32085088223528    0.00180361236263
O        -2.19930171717117    0.19610643193462    1.17537309863340
O        -2.17427193910122    0.20565045211184   -1.18490363348533
K        -3.16260869363243   -1.53967190313855   -0.02410352517766
21
 energy: -43.021991858919 gnorm: 0.000194043440 xtb: 6.4.1 (1a3296197974bf90c4de5929bcb902c290d06ae5)
C         2.87660237565789    1.40949668840282   -0.00531825082599
C         4.23307543210047    1.18060851873410   -0.01374272275637
C         4.75343005857204   -0.11931419598703   -0.01291820608178
C         3.93189793362776   -1.22410129132212   -0.00424066318616
C         2.55657715712578   -1.00738096399065    0.00441327243436
C         2.02039450093555    0.30602315198112    0.00427653591141
N         1.51785694412526   -1.88971833295328    0.01497442588365
C         0.33806923520251   -1.19066703086757    0.02307644936043
C         0.59843494858163    0.15014849966223    0.01671281663472
H         2.46410354066305    2.40668139206668   -0.00571863524242
H         4.91367596224164    2.01768577296505   -0.02091650515544
H         5.82388735585576   -0.25104997664479   -0.01912800639478
H         4.33724219255564   -2.22257630597557   -0.00362018367723
H         1.59489522742659   -2.89596274282775    0.01920793257015
H        -0.62262358451799   -1.68212756990477    0.03587458824284
O        -0.28091020057353    1.22855721537458    0.02272239095814
S        -1.84705080582020    0.99772319335354    0.00193182026348
O        -2.40668830551187    2.32159343423185    0.00166382073320
O        -2.20206921676754    0.19577891350622    1.17390470612523
O        -2.17202718105263    0.20724364225779   -1.18640027451793
K        -3.16153430492782   -1.53981948736246   -0.02926064587951
21
 energy: -43.021993893622 gnorm: 0.000465005604 xtb: 6.4.1 (1a3296197974bf90c4de5929bcb902c290d06ae5)
C         2.87524449095913    1.40893975637815   -0.00484854795018
C         4.23180888646891    1.18090559112148   -0.01800133766113
C         4.75280356817811   -0.11876923590982   -0.01896955350386
C         3.93207153104687   -1.22413414039028   -0.00783785872916
C         2.55660599227266   -1.00834077407654    0.00571617029655
C         2.01994801452820    0.30481600217589    0.00786745921513
N         1.51813210523809   -1.89096066085120    0.02045309096160
C         0.33808718763520   -1.19228723100274    0.03455994766099
C         0.59804235637824    0.14862603930407    0.02708567890118
H         2.46166652448825    2.40567201820923   -0.00369233217891
H         4.91191824675529    2.01835704339330   -0.02739481122422
H         5.82333698218197   -0.24983833651341   -0.02854849085498
H         4.33823592380041   -2.22228195370481   -0.00861894714909
H         1.59567218677549   -2.89717165209647    0.02519140495598
H        -0.62236587700057   -1.68424612859147    0.05380182158806
O        -0.28065840559970    1.22744969789506    0.03903712070617
S        -1.84688405737210    0.99941095205631    0.00136821895002
O        -2.40326416985762    2.32474232733405    0.00100718014564
O        -2.21517347652070    0.19384498253114    1.16683067415174
O        -2.16112209567721    0.21453500503185   -1.19353353738886
K        -3.15686664917892   -1.54044677759379   -0.05397868549267
21
 energy: -43.021294320040 gnorm: 0.025449612640 xtb: 6.4.1 (1a3296197974bf90c4de5929bcb902c290d06ae5)
C         2.85679584884116    1.40147107165053    0.00208947090234
C         4.21448760123739    1.18481322733176   -0.07795055009553
C         4.74397548095082   -0.11155817294245   -0.10428116080973
C         3.93395473613209   -1.22461502805875   -0.05812617099187
C         2.55664460959495   -1.02117331622612    0.02424189039888
C         2.01371676332976    0.28869391410842    0.05860560314720
N         1.52152517630285   -1.90756083903129    0.09752188982417
C         0.33821645155015   -1.21392053774246    0.19549803995879
C         0.59267969273144    0.12830281620373    0.17246506936443
H         2.42888112106996    2.39216988684333    0.02483650767864
H         4.88800416024111    2.02725752910888   -0.11834360620790
H         5.81546521134569   -0.23374742450685   -0.16073753713943
H         4.35097770874720   -2.21842798095747   -0.07853279745071
H         1.60581108614951   -2.91334034388114    0.10928767356075
H        -0.61887552740620   -1.71241636602479    0.30464929134938
O        -0.27731114348831    1.21265651073666    0.26741647934920
S        -1.84428072395444    1.02217673381942   -0.00655765987107
O        -2.35731643133399    2.36692034753111   -0.00789815410468
O        -2.39729193763792    0.16512542118075    1.06710589368962
O        -2.00719924634651    0.31543502802405   -1.29318000356853
K        -3.09162137255693   -1.54943995246728   -0.40061550358374
21
 energy: -43.021937937510 gnorm: 0.007574399207 xtb: 6.4.1 (1a3296197974bf90c4de5929bcb902c290d06ae5)
C         2.86249165368288    1.40404174232229    0.00114578518396
C         4.21942488488028    1.18345798984100   -0.05318472578711
C         4.74585175138604   -0.11402696559615   -0.07152324847331
C         3.93224159997649   -1.22439123663189   -0.03959938448262
C         2.55598149860513   -1.01662952108022    0.01724816868635
C         2.01537331891282    0.29435321977816    0.03920171108132
N         1.52020738675220   -1.90187350521525    0.06848193680395
C         0.33855690689811   -1.20647325681787    0.13426337440227
C         0.59466048672775    0.13525823502803    0.11395081471085
H         2.43983438490571    2.39689361028033    0.01774809571160
H         4.89506674847128    2.02418877282710   -0.08079039354746
H         5.81677819816622   -0.23930049972002   -0.11128074226335
H         4.34537245854652   -2.21969507385602   -0.05423298179504
H         1.60217627221214   -2.90781306912398    0.07761429929510
H        -0.61869003621331   -1.70268303927827    0.20964158860725
O        -0.27842492166977    1.21703836977844    0.17315514483842
S        -1.84401602042931    1.01411235096185   -0.00516064783296
O        -2.37275385099474    2.35167878091004   -0.00572431711322
O        -2.32086535739126    0.17926042518876    1.10467003046411
O        -2.06913984009831    0.27614953060858   -1.25277395615274
K        -3.11288825782701   -1.54472433550489   -0.26535588693724
21
 energy: -43.021984535268 gnorm: 0.003956297779 xtb: 6.4.1 (1a3296197974bf90c4de5929bcb902c290d06ae5)
C         2.86342218814697    1.40457331982543    0.00133695702547
C         4.22018391759669    1.18317237300475   -0.04853669068846
C         4.74595561289345   -0.11455688405856   -0.06641174676808
C         3.93160770412146   -1.22436692792095   -0.03708256228248
C         2.55562926570545   -1.01570140163865    0.01562402880968
C         2.01539456203784    0.29549797029872    0.03576370164018
N         1.51983985768003   -1.90072059690368    0.06332566361939
C         0.33855884896890   -1.20512860049596    0.12335675675248
C         0.59477389097244    0.13659426905218    0.10443426585252
H         2.44193807378197    2.39786034670501    0.01715985838650
H         4.89629047322663    2.02353488848473   -0.07297421828487
H         5.81670061205871   -0.24045813070134   -0.10319119781350
H         4.34389903589974   -2.21997183569411   -0.05061907071872
H         1.60144677166558   -2.90664890886263    0.07204933043697
H        -0.61842320921642   -1.70101588702046    0.19462285900178
O        -0.27926259974129    1.21755202802595    0.15676110768967
S        -1.84376062022314    1.01276788808687   -0.00551707572160
O        -2.37557169666008    2.34884539000824   -0.00627719020209
O        -2.30706755432287    0.18225171016424    1.10967330828359
O        -2.07866881794174    0.26894189460085   -1.24547142885771
K        -3.11564705115043   -1.54420038026059   -0.24053199076059
21
 energy: -43.022000318073 gnorm: 0.002219547067 xtb: 6.4.1 (1a3296197974bf90c4de5929bcb902c290d06ae5)
C         2.86445572640004    1.40516450454131    0.00136252448487
C         4.22110196705745    1.18285585439772   -0.04505930590992
C         4.74619749110296   -0.11513043055546   -0.06224950475021
C         3.93100420006457   -1.22432670007056   -0.03489650951337
C         2.55523919388441   -1.01467837944352    0.01446800743793
C         2.01540464441686    0.29676292848222    0.03298311435079
N         1.51931776270277   -1.89946555042234    0.05926317885734
C         0.33832972607826   -1.20366521377192    0.11462599348587
C         0.59485406652809    0.13806507962117    0.09740447548169
H         2.44421216852938    2.39895136645185    0.01621944833928
H         4.89774274381905    2.02283614844661   -0.06720737680770
H         5.81682205561055   -0.24171612979563   -0.09677313049421
H         4.34231463678339   -2.22031538426145   -0.04768261491853
H         1.60057368078888   -2.90540527735349    0.06756634857977
H        -0.61860296340717   -1.69907556536731    0.18254851596836
O        -0.28025462223477    1.21822945982190    0.14462149751127
S        -1.84345231780279    1.01126489063107   -0.00564592370948
O        -2.37858374985925    2.34577960223754   -0.00650403385935
O        -2.29642336524767    0.18360410336653    1.11320777306443
O        -2.08492791969941    0.26284735801155   -1.23985089726768
K        -3.11808586001572   -1.54376014026776   -0.22090691493101
21
 energy: -43.022003451360 gnorm: 0.002146304845 xtb: 6.4.1 (1a3296197974bf90c4de5929bcb902c290d06ae5)
C         2.86505926949729    1.40548025273828    0.00129908924851
C         4.22165495769214    1.18267411040995   -0.04431935886676
C         4.74641571751732   -0.11544424764524   -0.06110550592941
C         3.93077578654202   -1.22430905816119   -0.03422651761352
C         2.55508591307919   -1.01413132292626    0.01424446359202
C         2.01548185899196    0.29744797821850    0.03237930563154
N         1.51902949820323   -1.89878972363918    0.05818136586930
C         0.33816207508617   -1.20283513652678    0.11238020295815
C         0.59495775782307    0.13887678638096    0.09581933062353
H         2.44544011673078    2.39953904323928    0.01570150860432
H         4.89856753482488    2.02245189940789   -0.06606491057404
H         5.81700472343568   -0.24239732873772   -0.09496366493943
H         4.34154995015117   -2.22051920291443   -0.04675652330479
H         1.60009449714592   -2.90474892557464    0.06619299695332
H        -0.61892689443614   -1.69790253871959    0.17904402702941
O        -0.28071019438988    1.21871668275734    0.14191684619040
S        -1.84331177419858    1.01041120940615   -0.00560107643352
O        -2.38020155538073    2.34415284646942   -0.00643002218064
O        -2.29383156081964    0.18295508078635    1.11390079126473
O        -2.08570888804372    0.26075758134444   -1.23857045222595
K        -3.11934952395225   -1.54356346161353   -0.21552723049707
21
 energy: -43.022010270707 gnorm: 0.002123993796 xtb: 6.4.1 (1a3296197974bf90c4de5929bcb902c290d06ae5)
C         2.86670297486778    1.40631044754807    0.00127709903253
C         4.22314002247057    1.18218995956664   -0.04350130795790
C         4.74701384831971   -0.11628266375352   -0.05950962934887
C         3.93021756176150   -1.22427862755983   -0.03312791304282
C         2.55473411080833   -1.01270431512193    0.01412702249442
C         2.01578469870681    0.29924984376877    0.03193947401435
N         1.51830967944090   -1.89700878739592    0.05671259002646
C         0.33779892065184   -1.20059289784066    0.10940655570645
C         0.59533369476683    0.14103179197411    0.09403878245676
H         2.44869473511197    2.40108088719144    0.01482448329824
H         4.90074267565349    2.02142873302152   -0.06517094757772
H         5.81750853633304   -0.24420761143442   -0.09247730370338
H         4.33960198754964   -2.22106308507160   -0.04528850641509
H         1.59884639467604   -2.90302483544455    0.06389981903714
H        -0.61980110083170   -1.69470544403075    0.17351533949843
O        -0.28177183840302    1.22008602113107    0.13888754958755
S        -1.84297264638216    1.00812491671323   -0.00557032211791
O        -2.38448577203954    2.33989495704962   -0.00624063970872
O        -2.29035557811512    0.17979858461841    1.11416346679336
O        -2.08501036171294    0.25654243987413   -1.23718986148556
K        -3.12279327813410   -1.54304779010380   -0.20722108518762
21
 energy: -43.022017532430 gnorm: 0.001928913025 xtb: 6.4.1 (1a3296197974bf90c4de5929bcb902c290d06ae5)
C         2.86873447334330    1.40730426530776    0.00167106921990
C         4.22493982705805    1.18161479217286   -0.04360898408614
C         4.74772461556728   -0.11729511766343   -0.05937287206656
C         3.92956657801663   -1.22425835043081   -0.03272756559628
C         2.55436669202175   -1.01101048785299    0.01455218121946
C         2.01625185694075    0.30140175460899    0.03278268478647
N         1.51754007667357   -1.89488066484732    0.05663977738237
C         0.33752795197505   -1.19786948153009    0.10915126458414
C         0.59589249096617    0.14361585844676    0.09455209209026
H         2.45264584368226    2.40291360542770    0.01491667299329
H         4.90334661841656    2.02019601131221   -0.06607280570727
H         5.81807755729693   -0.24638662208188   -0.09248527012593
H         4.33735405905390   -2.22169759538422   -0.04493378855553
H         1.59740194209059   -2.90096558416565    0.06277476542573
H        -0.62067868117596   -1.69085593441015    0.17123638974354
O        -0.28287710964385    1.22174603379449    0.13940615101594
S        -1.84262620892609    1.00538042261652   -0.00592557237672
O        -2.38968722842268    2.33482456975796   -0.00639753756178
O        -2.28956910805716    0.17464959965602    1.11250990720840
O        -2.08134562578289    0.25277201658029   -1.23771729313101
K        -3.12734735559425   -1.54237656661500   -0.20345660106216
21
 energy: -43.022025455208 gnorm: 0.001537997711 xtb: 6.4.1 (1a3296197974bf90c4de5929bcb902c290d06ae5)
C         2.87178186892568    1.40872499001701    0.00310079185446
C         4.22758210432755    1.18081495493291   -0.04522075332428
C         4.74872709797783   -0.11874357704638   -0.06206321906353
C         3.92864513289820   -1.22423593257343   -0.03369463682176
C         2.55394483126360   -1.00859781077348    0.01606644729636
C         2.01709847262493    0.30447293064839    0.03600559425316
N         1.51665407869972   -1.89183486395988    0.05924395119296
C         0.33748301922110   -1.19393180009093    0.11369128281306
C         0.59685428090167    0.14731728468194    0.09920061166080
H         2.45848090209451    2.40551335624029    0.01730194928787
H         4.90712065852252    2.01842824169050   -0.06978392292487
H         5.81879413030675   -0.24951577945511   -0.09744835445253
H         4.33429244818903   -2.22252849132766   -0.04680862045281
H         1.59544147973657   -2.89801057324680    0.06383201000230
H        -0.62143943407060   -1.68544518330147    0.17484079041793
O        -0.28413492042556    1.22409636757785    0.14585387886814
S        -1.84230417547174    1.00143164635295   -0.00729858849399
O        -2.39741963822009    2.32749436779204   -0.00752623480750
O        -2.29285995347685    0.16541824387361    1.10706410903870
O        -2.07230107431782    0.24908244291436   -1.24160078909846
K        -3.13520204420709   -1.54112829024669   -0.20726163184590
21
 energy: -43.022030277118 gnorm: 0.001110155433 xtb: 6.4.1 (1a3296197974bf90c4de5929bcb902c290d06ae5)
C         2.87179604389359    1.40864595204493    0.00396338910047
C         4.22754997273423    1.18087769160567   -0.04611522029637
C         4.74869713965229   -0.11866262475792   -0.06438750094744
C         3.92871411290686   -1.22422134654721   -0.03502670007599
C         2.55409218815276   -1.00869837946543    0.01676075328850
C         2.01722340823626    0.30432884173691    0.03740912322243
N         1.51695303996240   -1.89196195405926    0.06143003941720
C         0.33783083861295   -1.19407877221765    0.11736718512106
C         0.59694577368688    0.14716040925824    0.10198592430459
H         2.45845300065789    2.40537440610358    0.01943627923073
H         4.90702156037530    2.01851922171152   -0.07106105984817
H         5.81868293264629   -0.24937198010410   -0.10154731005780
H         4.33460615980269   -2.22238746681804   -0.04889833131795
H         1.59564934543101   -2.89812724432893    0.06610299142063
H        -0.62081325524392   -1.68588004217833    0.18054556119040
O        -0.28372855246663    1.22393003462524    0.14950146076772
S        -1.84255359703474    1.00155938132167   -0.00814489123209