|===============================================================================
|
|  DFTB+ release 21.2
|
|  Copyright (C) 2006 - 2021  DFTB+ developers group
|
|===============================================================================
|
|  When publishing results obtained with DFTB+, please cite the following
|  reference:
|
|  * DFTB+, a software package for efficient approximate density functional
|    theory based atomistic simulations, J. Chem. Phys. 152, 124101 (2020).
|    [doi: 10.1063/1.5143190]
|
|  You should also cite additional publications crediting the parametrization
|  data you use. Please consult the documentation of the SK-files for the
|  references.
|
|===============================================================================

Reading input file 'dftb_in.hsd'
Parser version: 10

--------------------------------------------------------------------------------


Processed input in HSD format written to 'dftb_pin.hsd'

Starting initialization...
--------------------------------------------------------------------------------
OpenMP threads:              6
Chosen random seed:          16052361
Mode:                        Static calculation
Self consistent charges:     Yes
SCC-tolerance:                 0.100000E-04
Max. scc iterations:                    100
Shell resolved Hubbard:      Yes
Spin polarisation:           No
Nr. of up electrons:           990.000000
Nr. of down electrons:         990.000000
Periodic boundaries:         Yes
Electronic solver:           Relatively robust
Mixer:                       Broyden mixer
Mixing parameter:                  0.200000
Maximal SCC-cycles:                     100
Nr. of chrg. vec. in memory:            100
tblite library version:      0.1.0
-> parametrization:          GFN2-xTB
-> repulsion:                Yes
-> dispersion:               Yes
-> halogen bonding:          No
-> electrostatics:           Yes
   -> isotropic:             Yes
   -> anisotropic:           Yes
   -> third-order:           Yes
Electronic temperature:        0.950045E-03 H      0.258520E-01 eV
Initial charges:             Set automatically (system chrg:   0.000E+00)
Included shells:            Cu:  d, s, p
                             O:  s, p
                             N:  s, p
                             H:  s
                             C:  s, p
K-points and weights:           1:  0.250000  0.250000  0.250000     0.250000
                                2:  0.250000  0.250000  0.750000     0.250000
                                3:  0.250000  0.750000  0.250000     0.250000
                                4:  0.250000  0.750000  0.750000     0.250000

K-points in absolute space:     1:  0.006555  0.006555  0.006555
                                2:  0.006555  0.006555  0.019666
                                3:  0.006555  0.019666  0.006555
                                4:  0.006555  0.019666  0.019666

Extra options:
                             Mulliken analysis
Force type                   original

--------------------------------------------------------------------------------

***  Geometry step: 0

 iSCC Total electronic   Diff electronic      SCC error    
    1    0.00000000E+00    0.00000000E+00    0.12482429E+01
    2   -0.10944799E+04   -0.10944799E+04    0.81316256E+00
    3   -0.11013208E+04   -0.68409200E+01    0.33006766E+00
    4   -0.11032057E+04   -0.18849212E+01    0.25992329E+00
    5   -0.11034545E+04   -0.24877608E+00    0.51109079E+00
    6   -0.11017616E+04    0.16929339E+01    0.13067815E+00
    7   -0.11034651E+04   -0.17034680E+01    0.64981282E+00
    8   -0.11028976E+04    0.56742203E+00    0.78750339E+00
    9   -0.11019131E+04    0.98453275E+00    0.75719634E+00
   10   -0.11021361E+04   -0.22298438E+00    0.71095122E+00
   11   -0.11022170E+04   -0.80961127E-01    0.57377470E+00
   12   -0.11027927E+04   -0.57569885E+00    0.64911129E+00
   13   -0.11027817E+04    0.11089479E-01    0.68580398E+00
   14   -0.11027264E+04    0.55268989E-01    0.64952041E+00
   15   -0.11026310E+04    0.95361412E-01    0.60387779E+00
   16   -0.11028117E+04   -0.18069929E+00    0.46159247E+00
   17   -0.11032303E+04   -0.41853866E+00    0.49896516E+00
   18   -0.11030039E+04    0.22637895E+00    0.55674213E+00
   19   -0.11030958E+04   -0.91945382E-01    0.31915558E+00
   20   -0.11033212E+04   -0.22537194E+00    0.32908594E+00
   21   -0.11033494E+04   -0.28223456E-01    0.52631588E+00
   22   -0.11032601E+04    0.89286785E-01    0.36384521E+00
   23   -0.11033525E+04   -0.92320335E-01    0.24271735E+00
   24   -0.11034258E+04   -0.73365041E-01    0.17781395E+00
   25   -0.11034328E+04   -0.70087110E-02    0.14937477E+00
   26   -0.11034675E+04   -0.34636191E-01    0.12570463E+00
   27   -0.11034685E+04   -0.99756833E-03    0.15155968E+00
   28   -0.11034618E+04    0.66909603E-02    0.16875181E+00
   29   -0.11034626E+04   -0.78870351E-03    0.97713949E-01
   30   -0.11034812E+04   -0.18657605E-01    0.71882220E-01
   31   -0.11034838E+04   -0.26228179E-02    0.54971836E-01
   32   -0.11034915E+04   -0.76748776E-02    0.39641364E-01
   33   -0.11034955E+04   -0.39325952E-02    0.19157192E-01
   34   -0.11034963E+04   -0.80892059E-03    0.19971668E-01
   35   -0.11034966E+04   -0.30936330E-03    0.21610138E-01
   36   -0.11034962E+04    0.38767647E-03    0.20469124E-01
   37   -0.11034964E+04   -0.22831985E-03    0.61307232E-02
   38   -0.11034968E+04   -0.35103941E-03    0.27295084E-02
   39   -0.11034968E+04   -0.30858411E-04    0.52008912E-02
   40   -0.11034968E+04    0.35084931E-05    0.12479890E-02
   41   -0.11034968E+04   -0.18636317E-04    0.74165025E-03
   42   -0.11034968E+04   -0.17069572E-05    0.11710698E-02
   43   -0.11034968E+04    0.81024587E-06    0.64733596E-03
   44   -0.11034968E+04   -0.11374204E-05    0.47050997E-03
   45   -0.11034968E+04   -0.97609473E-07    0.24289448E-03
   46   -0.11034968E+04   -0.13295289E-06    0.15732764E-03
   47   -0.11034968E+04   -0.55183136E-07    0.11341550E-03
   48   -0.11034968E+04   -0.59535523E-08    0.17222927E-03
   49   -0.11034968E+04    0.15594878E-07    0.16423820E-03
   50   -0.11034968E+04   -0.40056193E-07    0.10615625E-03
   51   -0.11034968E+04   -0.10928943E-07    0.63005030E-04
   52   -0.11034968E+04   -0.88809884E-08    0.50744964E-04
   53   -0.11034968E+04   -0.87595708E-08    0.24670229E-04
   54   -0.11034968E+04    0.17330194E-07    0.67915312E-05

Total Energy:                    -1103.4968103295 H       -30027.6760 eV
Extrapolated to 0K:              -1103.5046720120 H       -30027.8899 eV
Total Mermin free energy:        -1103.5125336946 H       -30028.1039 eV
Force related energy:            -1103.5125336946 H       -30028.1039 eV

Volume:                              0.554649E+05 au^3   0.821905E+04 A^3
Pressure:                            0.164655E-03 au     0.484432E+10 Pa
>> Charges saved for restart in charges.bin

total energy  -1.1035125E+03 H       energy change -1.1035125E+03 H
gradient norm  2.4510237E+00 H/a0    max. gradient  2.6222415E-01 H/a0
step length    0.0000000E+00 a0      max. step      0.0000000E+00 a0

--------------------------------------------------------------------------------

***  Geometry step: 1

 iSCC Total electronic   Diff electronic      SCC error    
    1   -0.11034968E+04    0.00000000E+00    0.17938464E+00
    2   -0.11047427E+04   -0.12458580E+01    0.61240502E+00
    3   -0.11033293E+04    0.14133628E+01    0.56015306E+00
    4   -0.11039733E+04   -0.64397174E+00    0.44324140E+00
    5   -0.11044244E+04   -0.45115573E+00    0.52843652E+00
    6   -0.11037564E+04    0.66800856E+00    0.34526473E+00
    7   -0.11043335E+04   -0.57705078E+00    0.53456240E+00
    8   -0.11035909E+04    0.74253878E+00    0.50242113E+00
    9   -0.11040334E+04   -0.44245982E+00    0.49273199E+00
   10   -0.11042438E+04   -0.21042944E+00    0.34388909E+00
   11   -0.11044896E+04   -0.24575600E+00    0.37482049E+00
   12   -0.11045827E+04   -0.93112733E-01    0.41418383E+00
   13   -0.11046231E+04   -0.40359137E-01    0.38331523E+00
   14   -0.11045131E+04    0.10999562E+00    0.32312476E+00
   15   -0.11046592E+04   -0.14615779E+00    0.18485450E+00
   16   -0.11048171E+04   -0.15792058E+00    0.13548450E+00
   17   -0.11048375E+04   -0.20366733E-01    0.14532403E+00
   18   -0.11048202E+04    0.17270306E-01    0.13444257E+00
   19   -0.11048293E+04   -0.90663068E-02    0.13855928E+00
   20   -0.11048347E+04   -0.53883092E-02    0.57526119E-01
   21   -0.11048521E+04   -0.17362866E-01    0.10558305E+00
   22   -0.11048503E+04    0.17849172E-02    0.18342184E-01
   23   -0.11048579E+04   -0.76578550E-02    0.20761701E-01
   24   -0.11048573E+04    0.58220318E-03    0.46689613E-01
   25   -0.11048539E+04    0.34827854E-02    0.46767609E-01
   26   -0.11048544E+04   -0.57993053E-03    0.13901012E-01
   27   -0.11048581E+04   -0.36392064E-02    0.88935853E-02
   28   -0.11048582E+04   -0.13126066E-03    0.39905128E-02
   29   -0.11048584E+04   -0.17013167E-03    0.12336694E-02
   30   -0.11048584E+04   -0.13505559E-04    0.92917227E-03
   31   -0.11048584E+04    0.50639960E-06    0.22759007E-02
   32   -0.11048584E+04    0.59991858E-05    0.15971934E-02
   33   -0.11048584E+04   -0.25780630E-05    0.58107973E-03
   34   -0.11048584E+04   -0.51715665E-05    0.18780370E-03
   35   -0.11048584E+04   -0.23523262E-06    0.76433888E-04
   36   -0.11048584E+04   -0.59530976E-07    0.90772953E-04
   37   -0.11048584E+04    0.11575139E-07    0.47893190E-04
   38   -0.11048584E+04   -0.90487902E-08    0.21635497E-04
   39   -0.11048584E+04   -0.13417321E-08    0.16037562E-04
   40   -0.11048584E+04   -0.11652901E-08    0.46519841E-05

Total Energy:                    -1104.8583937986 H       -30064.7266 eV
Extrapolated to 0K:              -1104.8662644453 H       -30064.9407 eV
Total Mermin free energy:        -1104.8741350920 H       -30065.1549 eV
Force related energy:            -1104.8741350920 H       -30065.1549 eV

Volume:                              0.558469E+05 au^3   0.827566E+04 A^3
Pressure:                            0.101802E-03 au     0.299510E+10 Pa
>> Charges saved for restart in charges.bin

total energy  -1.1048741E+03 H       energy change -1.3616014E+00 H
gradient norm  1.3373401E+00 H/a0    max. gradient  3.4697302E-01 H/a0
step length    8.1659879E-01 a0      max. step      8.7364279E-02 a0

--------------------------------------------------------------------------------

***  Geometry step: 2

 iSCC Total electronic   Diff electronic      SCC error    
    1   -0.11048584E+04    0.00000000E+00    0.56142072E+00
    2   -0.11035745E+04    0.12838880E+01    0.84810870E+00
    3   -0.11030009E+04    0.57357772E+00    0.56508844E+00
    4   -0.11037884E+04   -0.78747977E+00    0.70467405E+00
    5   -0.11033019E+04    0.48652372E+00    0.50343393E+00
    6   -0.11043680E+04   -0.10661051E+01    0.66104062E+00
    7   -0.11038807E+04    0.48728366E+00    0.61663628E+00
    8   -0.11034275E+04    0.45323483E+00    0.49041179E+00
    9   -0.11040578E+04   -0.63036693E+00    0.50827266E+00
   10   -0.11037538E+04    0.30402415E+00    0.50511393E+00
   11   -0.11040415E+04   -0.28768379E+00    0.49441907E+00
   12   -0.11044383E+04   -0.39677616E+00    0.45169203E+00
   13   -0.11045421E+04   -0.10386232E+00    0.26677869E+00
   14   -0.11047790E+04   -0.23685732E+00    0.41791872E+00
   15   -0.11044896E+04    0.28942704E+00    0.47335663E+00
   16   -0.11044369E+04    0.52630947E-01    0.44865795E+00
   17   -0.11044874E+04   -0.50466074E-01    0.36853862E+00
   18   -0.11047291E+04   -0.24169259E+00    0.21906781E+00
   19   -0.11048740E+04   -0.14489450E+00    0.26057195E+00
   20   -0.11048799E+04   -0.58625040E-02    0.30084836E+00
   21   -0.11047844E+04    0.95403673E-01    0.28659558E+00
   22   -0.11048109E+04   -0.26435290E-01    0.26110678E+00
   23   -0.11048321E+04   -0.21260541E-01    0.21966925E+00
   24   -0.11048913E+04   -0.59184343E-01    0.19465661E+00
   25   -0.11048625E+04    0.28811760E-01    0.21251771E+00
   26   -0.11048580E+04    0.44824119E-02    0.80889213E-01
   27   -0.11049432E+04   -0.85158805E-01    0.88894263E-01
   28   -0.11049450E+04   -0.18480520E-02    0.98035197E-01
   29   -0.11049447E+04    0.34937891E-03    0.38428807E-01
   30   -0.11049498E+04   -0.50902778E-02    0.14503827E-01
   31   -0.11049511E+04   -0.13443205E-02    0.17369130E-01
   32   -0.11049511E+04    0.17079079E-04    0.18570803E-01
   33   -0.11049511E+04    0.17236021E-05    0.10236213E-01
   34   -0.11049513E+04   -0.15313368E-03    0.58845402E-02
   35   -0.11049513E+04   -0.57978797E-04    0.17572115E-02
   36   -0.11049513E+04   -0.25802375E-04    0.18241098E-02
   37   -0.11049513E+04   -0.24987319E-05    0.99022899E-03
   38   -0.11049514E+04   -0.45873837E-05    0.67786090E-03
   39   -0.11049514E+04   -0.11979575E-05    0.65538879E-03
   40   -0.11049514E+04   -0.77984396E-07    0.35696535E-03
   41   -0.11049514E+04   -0.41950443E-07    0.35555223E-03
   42   -0.11049514E+04   -0.72051307E-07    0.15025916E-03
   43   -0.11049514E+04   -0.60389084E-07    0.12024693E-03
   44   -0.11049514E+04    0.23919711E-08    0.85292180E-04
   45   -0.11049514E+04    0.30049478E-07    0.82188948E-04
   46   -0.11049514E+04   -0.17805633E-08    0.61729539E-04
   47   -0.11049514E+04    0.79462552E-08    0.26187108E-04
   48   -0.11049514E+04   -0.25634108E-08    0.11795169E-04
   49   -0.11049514E+04   -0.71374870E-08    0.64717225E-05

Total Energy:                    -1104.9513518123 H       -30067.2561 eV
Extrapolated to 0K:              -1104.9592130677 H       -30067.4700 eV
Total Mermin free energy:        -1104.9670743230 H       -30067.6839 eV
Force related energy:            -1104.9670743230 H       -30067.6839 eV

Volume:                              0.549167E+05 au^3   0.813781E+04 A^3
Pressure:                            0.201693E-03 au     0.593401E+10 Pa
>> Charges saved for restart in charges.bin

total energy  -1.1049671E+03 H       energy change -9.2939231E-02 H
gradient norm  3.2043707E+00 H/a0    max. gradient  1.7308370E+00 H/a0
step length    7.9230918E-01 a0      max. step      2.1343054E-01 a0

--------------------------------------------------------------------------------

***  Geometry step: 3

 iSCC Total electronic   Diff electronic      SCC error    
    1   -0.11049514E+04    0.00000000E+00    0.41784097E+00
    2   -0.11049759E+04   -0.24549360E-01    0.75646274E+00
    3   -0.11036573E+04    0.13186348E+01    0.53462288E+00
    4   -0.11046984E+04   -0.10410886E+01    0.59627428E+00
    5   -0.11047497E+04   -0.51391981E-01    0.50342822E+00
    6   -0.11050450E+04   -0.29527022E+00    0.61899909E+00
    7   -0.11042372E+04    0.80784992E+00    0.49098764E+00
    8   -0.11047207E+04   -0.48357039E+00    0.60311142E+00
    9   -0.11042149E+04    0.50580817E+00    0.51901938E+00
   10   -0.11048267E+04   -0.61179385E+00    0.51258641E+00
   11   -0.11046622E+04    0.16456104E+00    0.49272838E+00
   12   -0.11051299E+04   -0.46772015E+00    0.28760068E+00
   13   -0.11054413E+04   -0.31144197E+00    0.36131780E+00
   14   -0.11051884E+04    0.25289886E+00    0.47245368E+00
   15   -0.11049571E+04    0.23136090E+00    0.44464844E+00
   16   -0.11051108E+04   -0.15371660E+00    0.22949810E+00
   17   -0.11054890E+04   -0.37822342E+00    0.14354540E+00
   18   -0.11055299E+04   -0.40938040E-01    0.20195329E+00
   19   -0.11055280E+04    0.19443924E-02    0.20179788E+00
   20   -0.11054810E+04    0.47030075E-01    0.25948536E+00
   21   -0.11054648E+04    0.16142286E-01    0.11599719E+00
   22   -0.11055498E+04   -0.84952323E-01    0.22839763E+00
   23   -0.11055361E+04    0.13670129E-01    0.24526445E+00
   24   -0.11054770E+04    0.59119812E-01    0.28104053E+00
   25   -0.11055160E+04   -0.39032687E-01    0.13786863E+00
   26   -0.11055325E+04   -0.16462889E-01    0.75463428E-01
   27   -0.11055623E+04   -0.29797437E-01    0.60044780E-01
   28   -0.11055672E+04   -0.49239597E-02    0.43237619E-01
   29   -0.11055702E+04   -0.30311710E-02    0.47953987E-01
   30   -0.11055688E+04    0.14412788E-02    0.15075277E-01
   31   -0.11055728E+04   -0.40367186E-02    0.12885500E-01
   32   -0.11055730E+04   -0.19214732E-03    0.43005663E-02
   33   -0.11055733E+04   -0.25145591E-03    0.55596079E-02
   34   -0.11055732E+04    0.39171075E-04    0.21017058E-02
   35   -0.11055733E+04   -0.55099444E-04    0.80432583E-03
   36   -0.11055733E+04   -0.52884900E-05    0.47665127E-03
   37   -0.11055733E+04   -0.55456417E-06    0.40923644E-03
   38   -0.11055733E+04   -0.23919461E-06    0.19254419E-03
   39   -0.11055733E+04   -0.78011681E-07    0.11507902E-03
   40   -0.11055733E+04   -0.43697810E-07    0.78700176E-04
   41   -0.11055733E+04   -0.19656454E-08    0.22650961E-04
   42   -0.11055733E+04   -0.11829343E-07    0.16812522E-04
   43   -0.11055733E+04    0.50658855E-09    0.14420181E-04
   44   -0.11055733E+04   -0.44883564E-09    0.18156168E-04
   45   -0.11055733E+04    0.30672709E-09    0.79633160E-05

Total Energy:                    -1105.5732976166 H       -30084.1801 eV
Extrapolated to 0K:              -1105.5811588410 H       -30084.3940 eV
Total Mermin free energy:        -1105.5890200655 H       -30084.6079 eV
Force related energy:            -1105.5890200655 H       -30084.6079 eV

Volume:                              0.557067E+05 au^3   0.825489E+04 A^3
Pressure:                            0.848762E-04 au     0.249714E+10 Pa
>> Charges saved for restart in charges.bin

total energy  -1.1055890E+03 H       energy change -6.2194574E-01 H
gradient norm  4.2340410E-01 H/a0    max. gradient  4.5449849E-02 H/a0
step length    4.6167045E-01 a0      max. step      1.8141190E-01 a0

--------------------------------------------------------------------------------

***  Geometry step: 4

 iSCC Total electronic   Diff electronic      SCC error    
    1   -0.11055733E+04    0.00000000E+00    0.79898152E-01
    2   -0.11057025E+04   -0.12918355E+00    0.52163278E+00
    3   -0.11048628E+04    0.83967661E+00    0.34262351E+00
    4   -0.11053488E+04   -0.48598945E+00    0.17874068E+00
    5   -0.11056400E+04   -0.29120430E+00    0.46809359E+00
    6   -0.11053647E+04    0.27530555E+00    0.18253783E+00
    7   -0.11056522E+04   -0.28750852E+00    0.50935357E+00
    8   -0.11050979E+04    0.55434754E+00    0.47327908E+00
    9   -0.11050849E+04    0.13000306E-01    0.30360029E+00
   10   -0.11055020E+04   -0.41712127E+00    0.21959114E+00
   11   -0.11056354E+04   -0.13343924E+00    0.18077733E+00
   12   -0.11056775E+04   -0.42078302E-01    0.26535310E+00
   13   -0.11056222E+04    0.55278368E-01    0.23970747E+00
   14   -0.11056318E+04   -0.96263804E-02    0.97044531E-01
   15   -0.11057065E+04   -0.74617913E-01    0.74112892E-01
   16   -0.11057093E+04   -0.28027615E-02    0.55706662E-01
   17   -0.11057175E+04   -0.82474491E-02    0.19944766E-01
   18   -0.11057208E+04   -0.32754146E-02    0.30480394E-01
   19   -0.11057198E+04    0.96683315E-03    0.13925823E-01
   20   -0.11057209E+04   -0.10909822E-02    0.18614745E-01
   21   -0.11057207E+04    0.18948089E-03    0.11669052E-01
   22   -0.11057210E+04   -0.31272663E-03    0.40796306E-02
   23   -0.11057212E+04   -0.17452035E-03    0.15613426E-02
   24   -0.11057212E+04   -0.32832290E-04    0.12858600E-02
   25   -0.11057212E+04   -0.29138762E-05    0.49901681E-03
   26   -0.11057212E+04   -0.18309599E-05    0.72471095E-03
   27   -0.11057212E+04    0.12953524E-06    0.60458623E-03
   28   -0.11057212E+04    0.24973269E-06    0.41027494E-03
   29   -0.11057212E+04   -0.59881017E-06    0.88746252E-04
   30   -0.11057212E+04   -0.30138540E-06    0.12620383E-03
   31   -0.11057212E+04    0.10156100E-07    0.48274408E-04
   32   -0.11057212E+04   -0.18670335E-07    0.37140832E-04
   33   -0.11057212E+04   -0.19288109E-08    0.77692476E-05

Total Energy:                    -1105.7212438241 H       -30088.2059 eV
Extrapolated to 0K:              -1105.7291008833 H       -30088.4197 eV
Total Mermin free energy:        -1105.7369579425 H       -30088.6335 eV
Force related energy:            -1105.7369579425 H       -30088.6335 eV

Volume:                              0.557700E+05 au^3   0.826427E+04 A^3
Pressure:                            0.464532E-04 au     0.136670E+10 Pa
>> Charges saved for restart in charges.bin

total energy  -1.1057370E+03 H       energy change -1.4793788E-01 H
gradient norm  2.9038550E-01 H/a0    max. gradient  5.0386167E-02 H/a0
step length    4.7488901E-01 a0      max. step      4.1624422E-02 a0

--------------------------------------------------------------------------------

***  Geometry step: 5

 iSCC Total electronic   Diff electronic      SCC error    
    1   -0.11057212E+04    0.00000000E+00    0.16074113E+00
    2   -0.11057345E+04   -0.13221473E-01    0.62956733E+00
    3   -0.11043377E+04    0.13967256E+01    0.53526682E+00
    4   -0.11047431E+04   -0.40533039E+00    0.38341653E+00
    5   -0.11054760E+04   -0.73297361E+00    0.33638002E+00
    6   -0.11055218E+04   -0.45719408E-01    0.55820603E+00
    7   -0.11048172E+04    0.70451542E+00    0.49057943E+00
    8   -0.11050148E+04   -0.19759147E+00    0.48198506E+00
    9   -0.11050607E+04   -0.45907485E-01    0.48822147E+00
   10   -0.11050741E+04   -0.13379913E-01    0.50052776E+00
   11   -0.11050812E+04   -0.70857505E-02    0.43278858E+00
   12   -0.11052955E+04   -0.21426911E+00    0.31090792E+00
   13   -0.11056283E+04   -0.33286485E+00    0.34731847E+00
   14   -0.11055938E+04    0.34546221E-01    0.27870430E+00
   15   -0.11057461E+04   -0.15234031E+00    0.56097531E-01
   16   -0.11058062E+04   -0.60103648E-01    0.69861483E-01
   17   -0.11058052E+04    0.10594905E-02    0.88013454E-01
   18   -0.11057985E+04    0.66978807E-02    0.85511681E-01
   19   -0.11058039E+04   -0.54544558E-02    0.48783995E-01
   20   -0.11058078E+04   -0.38778480E-02    0.67708584E-01
   21   -0.11058085E+04   -0.71586342E-03    0.46486797E-01
   22   -0.11058065E+04    0.20716885E-02    0.25704000E-01
   23   -0.11058104E+04   -0.39068133E-02    0.71103784E-02
   24   -0.11058118E+04   -0.14419931E-02    0.32759504E-01
   25   -0.11058092E+04    0.26282184E-02    0.10255884E-01
   26   -0.11058117E+04   -0.25073125E-02    0.76651531E-02
   27   -0.11058117E+04   -0.51909435E-04    0.33345314E-02
   28   -0.11058119E+04   -0.11299078E-03    0.19365054E-02
   29   -0.11058119E+04   -0.81331000E-05    0.12448203E-02
   30   -0.11058119E+04    0.51834354E-06    0.15943345E-02
   31   -0.11058119E+04    0.20012451E-05    0.34560590E-03
   32   -0.11058119E+04   -0.47937936E-05    0.32236831E-03
   33   -0.11058119E+04    0.87500212E-08    0.19790726E-03
   34   -0.11058119E+04   -0.14486318E-06    0.12585662E-03
   35   -0.11058119E+04   -0.36776328E-07    0.54096977E-04
   36   -0.11058119E+04   -0.21980213E-07    0.46358074E-04
   37   -0.11058119E+04   -0.58139449E-09    0.10523537E-04
   38   -0.11058119E+04    0.47907633E-09    0.37567333E-05

Total Energy:                    -1105.8118664887 H       -30090.6719 eV
Extrapolated to 0K:              -1105.8197187751 H       -30090.8856 eV
Total Mermin free energy:        -1105.8275710614 H       -30091.0992 eV
Force related energy:            -1105.8275710614 H       -30091.0992 eV

Volume:                              0.558263E+05 au^3   0.827261E+04 A^3
Pressure:                            0.265812E-05 au     0.782046E+08 Pa
>> Charges saved for restart in charges.bin

total energy  -1.1058276E+03 H       energy change -9.0613119E-02 H
gradient norm  4.0674888E-01 H/a0    max. gradient  1.7138550E-01 H/a0
step length    5.8652807E-01 a0      max. step      5.8537268E-02 a0

--------------------------------------------------------------------------------

***  Geometry step: 6

 iSCC Total electronic   Diff electronic      SCC error    
    1   -0.11058119E+04    0.00000000E+00    0.24539906E+00
    2   -0.11056321E+04    0.17976363E+00    0.67239214E+00
    3   -0.11043150E+04    0.13170951E+01    0.54534959E+00
    4   -0.11043998E+04   -0.84790298E-01    0.49454929E+00
    5   -0.11052892E+04   -0.88944195E+00    0.49100452E+00
    6   -0.11053780E+04   -0.88805409E-01    0.59553635E+00
    7   -0.11049669E+04    0.41115756E+00    0.56311645E+00
    8   -0.11046226E+04    0.34428525E+00    0.51319697E+00
    9   -0.11048873E+04   -0.26474282E+00    0.49947691E+00
   10   -0.11051762E+04   -0.28883339E+00    0.50606430E+00
   11   -0.11050323E+04    0.14391482E+00    0.49033437E+00
   12   -0.11049713E+04    0.60970103E-01    0.49101648E+00
   13   -0.11051731E+04   -0.20176387E+00    0.46894953E+00
   14   -0.11053442E+04   -0.17111140E+00    0.44172014E+00
   15   -0.11053992E+04   -0.55078265E-01    0.33745690E+00
   16   -0.11056171E+04   -0.21787391E+00    0.28519381E+00
   17   -0.11056257E+04   -0.86181498E-02    0.21226076E+00
   18   -0.11057049E+04   -0.79150055E-01    0.71243573E-01
   19   -0.11058078E+04   -0.10294247E+00    0.12601542E+00
   20   -0.11057949E+04    0.12963999E-01    0.94342619E-01
   21   -0.11057977E+04   -0.28160979E-02    0.55413039E-01
   22   -0.11058100E+04   -0.12352392E-01    0.66481929E-01
   23   -0.11058079E+04    0.21343038E-02    0.88077829E-01
   24   -0.11058107E+04   -0.28047936E-02    0.42654749E-01
   25   -0.11058142E+04   -0.35096850E-02    0.23905880E-01
   26   -0.11058143E+04   -0.95430891E-04    0.14754824E-01
   27   -0.11058154E+04   -0.10617759E-02    0.16323801E-01
   28   -0.11058153E+04    0.45577506E-04    0.13364920E-01
   29   -0.11058154E+04   -0.50438465E-04    0.15176680E-01
   30   -0.11058154E+04   -0.47053276E-04    0.77691008E-02
   31   -0.11058156E+04   -0.14966252E-03    0.42495577E-02
   32   -0.11058157E+04   -0.13505196E-03    0.15173561E-02
   33   -0.11058157E+04   -0.23449799E-04    0.20956364E-02
   34   -0.11058157E+04    0.28477152E-05    0.33002540E-03
   35   -0.11058157E+04   -0.84375979E-05    0.26008783E-03
   36   -0.11058157E+04   -0.17706680E-06    0.15893853E-03
   37   -0.11058157E+04   -0.88389697E-07    0.15643467E-03
   38   -0.11058157E+04   -0.22735321E-07    0.67645582E-04
   39   -0.11058157E+04    0.42127795E-08    0.49813900E-04
   40   -0.11058157E+04   -0.87361514E-08    0.18856686E-04
   41   -0.11058157E+04    0.27287115E-08    0.10926443E-04
   42   -0.11058157E+04    0.46834430E-08    0.11533210E-04
   43   -0.11058157E+04    0.32491698E-09    0.45717356E-05

Total Energy:                    -1105.8157397879 H       -30090.7773 eV
Extrapolated to 0K:              -1105.8235945712 H       -30090.9910 eV
Total Mermin free energy:        -1105.8314493544 H       -30091.2048 eV
Force related energy:            -1105.8314493544 H       -30091.2048 eV

Volume:                              0.558181E+05 au^3   0.827139E+04 A^3
Pressure:                           -0.301409E-04 au    -0.886776E+09 Pa
>> Charges saved for restart in charges.bin

total energy  -1.1058314E+03 H       energy change -3.8782930E-03 H
gradient norm  7.8339770E-01 H/a0    max. gradient  4.1174675E-01 H/a0
step length    5.5528881E-01 a0      max. step      1.0365068E-01 a0

--------------------------------------------------------------------------------

***  Geometry step: 7

 iSCC Total electronic   Diff electronic      SCC error    
    1   -0.11058157E+04    0.00000000E+00    0.19245960E+00
    2   -0.11057718E+04    0.43980822E-01    0.63844015E+00
    3   -0.11044261E+04    0.13456903E+01    0.53678639E+00
    4   -0.11049577E+04   -0.53162050E+00    0.40218904E+00
    5   -0.11055216E+04   -0.56393493E+00    0.51599272E+00
    6   -0.11049424E+04    0.57923252E+00    0.57384411E+00
    7   -0.11049057E+04    0.36653845E-01    0.54718661E+00
    8   -0.11049480E+04   -0.42284948E-01    0.49189955E+00
    9   -0.11052787E+04   -0.33072388E+00    0.47280452E+00
   10   -0.11054694E+04   -0.19068589E+00    0.45947999E+00
   11   -0.11055726E+04   -0.10318330E+00    0.50611988E+00
   12   -0.11053300E+04    0.24262489E+00    0.51133985E+00
   13   -0.11051570E+04    0.17303826E+00    0.51192400E+00
   14   -0.11051530E+04    0.40010130E-02    0.27318120E+00
   15   -0.11057500E+04   -0.59709412E+00    0.30215443E+00
   16   -0.11057838E+04   -0.33744882E-01    0.34816580E+00
   17   -0.11057872E+04   -0.34585966E-02    0.31446196E+00
   18   -0.11058029E+04   -0.15691142E-01    0.10376975E+00
   19   -0.11058557E+04   -0.52786333E-01    0.11704153E+00
   20   -0.11058550E+04    0.74166133E-03    0.80898674E-01
   21   -0.11058529E+04    0.20755877E-02    0.86616906E-01
   22   -0.11058629E+04   -0.99885830E-02    0.74834662E-01
   23   -0.11058636E+04   -0.65710824E-03    0.55261724E-01
   24   -0.11058657E+04   -0.21753771E-02    0.41634592E-01
   25   -0.11058670E+04   -0.12562674E-02    0.23721242E-01
   26   -0.11058696E+04   -0.25806434E-02    0.17515040E-01
   27   -0.11058696E+04   -0.78264889E-04    0.14704633E-01
   28   -0.11058698E+04   -0.11691313E-03    0.99929316E-02
   29   -0.11058699E+04   -0.15805067E-03    0.67397391E-02
   30   -0.11058700E+04   -0.11968861E-03    0.24592646E-02
   31   -0.11058701E+04   -0.63267623E-04    0.24914178E-02
   32   -0.11058701E+04   -0.18282662E-06    0.15318925E-02
   33   -0.11058701E+04   -0.26868806E-05    0.91620161E-03
   34   -0.11058701E+04   -0.24812005E-05    0.22287444E-03
   35   -0.11058701E+04   -0.11942655E-05    0.21954625E-03
   36   -0.11058701E+04   -0.33110155E-08    0.10362343E-03
   37   -0.11058701E+04   -0.70976512E-07    0.11414028E-03
   38   -0.11058701E+04    0.22848326E-07    0.14374155E-04
   39   -0.11058701E+04   -0.21155756E-07    0.31001063E-04
   40   -0.11058701E+04   -0.22557742E-08    0.11583189E-04
   41   -0.11058701E+04   -0.20895641E-09    0.68981622E-05

Total Energy:                    -1105.8701102083 H       -30092.2568 eV
Extrapolated to 0K:              -1105.8779678130 H       -30092.4706 eV
Total Mermin free energy:        -1105.8858254176 H       -30092.6844 eV
Force related energy:            -1105.8858254176 H       -30092.6844 eV

Volume:                              0.557708E+05 au^3   0.826439E+04 A^3
Pressure:                           -0.371426E-04 au    -0.109277E+10 Pa
>> Charges saved for restart in charges.bin

total energy  -1.1058858E+03 H       energy change -5.4376063E-02 H
gradient norm  2.6991762E-01 H/a0    max. gradient  1.2276621E-01 H/a0
step length    2.5562457E-01 a0      max. step      7.8917889E-02 a0

--------------------------------------------------------------------------------

***  Geometry step: 8

 iSCC Total electronic   Diff electronic      SCC error    
    1   -0.11058701E+04    0.00000000E+00    0.36989389E-01
    2   -0.11058827E+04   -0.12637290E-01    0.49423898E+00
    3   -0.11054919E+04    0.39085728E+00    0.21681708E+00
    4   -0.11058448E+04   -0.35288614E+00    0.47550393E+00
    5   -0.11055749E+04    0.26982662E+00    0.47276497E+00
    6   -0.11053048E+04    0.27010775E+00    0.31291501E+00
    7   -0.11057299E+04   -0.42510647E+00    0.13075045E+00
    8   -0.11058573E+04   -0.12737306E+00    0.42483773E+00
    9   -0.11055367E+04    0.32062076E+00    0.28387446E+00
   10   -0.11057385E+04   -0.20182379E+00    0.30777288E+00
   11   -0.11058155E+04   -0.76956687E-01    0.33075788E+00
   12   -0.11057281E+04    0.87362423E-01    0.16274958E+00
   13   -0.11058439E+04   -0.11580194E+00    0.68003892E-01
   14   -0.11058792E+04   -0.35271426E-01    0.77370721E-01
   15   -0.11058791E+04    0.11180748E-03    0.33366946E-01
   16   -0.11058860E+04   -0.69576034E-02    0.26965705E-01
   17   -0.11058854E+04    0.61311067E-03    0.40027164E-01
   18   -0.11058856E+04   -0.21710204E-03    0.51142684E-01
   19   -0.11058847E+04    0.94841185E-03    0.31828972E-01
   20   -0.11058856E+04   -0.89844387E-03    0.19122089E-01
   21   -0.11058865E+04   -0.93469771E-03    0.61323163E-02
   22   -0.11058868E+04   -0.23476406E-03    0.89349441E-02
   23   -0.11058867E+04    0.45729869E-04    0.55429103E-02
   24   -0.11058868E+04   -0.75668338E-04    0.14683259E-02
   25   -0.11058868E+04   -0.34804361E-04    0.80434445E-03
   26   -0.11058868E+04   -0.11248219E-05    0.10409451E-02
   27   -0.11058868E+04   -0.11428915E-06    0.64145036E-03
   28   -0.11058868E+04   -0.10538768E-05    0.16531156E-03
   29   -0.11058868E+04   -0.49284063E-06    0.68673456E-04
   30   -0.11058868E+04   -0.29643843E-07    0.73072248E-04
   31   -0.11058868E+04    0.14501211E-07    0.15970169E-04
   32   -0.11058868E+04   -0.19502750E-07    0.10847626E-04
   33   -0.11058868E+04    0.32939624E-08    0.80196710E-05

Total Energy:                    -1105.8868290311 H       -30092.7117 eV
Extrapolated to 0K:              -1105.8946847256 H       -30092.9255 eV
Total Mermin free energy:        -1105.9025404201 H       -30093.1392 eV
Force related energy:            -1105.9025404201 H       -30093.1392 eV

Volume:                              0.557473E+05 au^3   0.826091E+04 A^3
Pressure:                           -0.337735E-04 au    -0.993650E+09 Pa
>> Charges saved for restart in charges.bin

total energy  -1.1059025E+03 H       energy change -1.6715003E-02 H
gradient norm  1.4194332E-01 H/a0    max. gradient  5.2410361E-02 H/a0
step length    1.4437411E-01 a0      max. step      5.6866820E-02 a0

--------------------------------------------------------------------------------

***  Geometry step: 9

 iSCC Total electronic   Diff electronic      SCC error    
    1   -0.11058868E+04    0.00000000E+00    0.13193363E+00
    2   -0.11058717E+04    0.15086163E-01    0.53954700E+00
    3   -0.11044433E+04    0.14284848E+01    0.49780084E+00
    4   -0.11056056E+04   -0.11623018E+01    0.43634685E+00
    5   -0.11056697E+04   -0.64114919E-01    0.17498085E+00
    6   -0.11058336E+04   -0.16390144E+00    0.33585948E+00
    7   -0.11057382E+04    0.95420310E-01    0.48672172E+00
    8   -0.11055567E+04    0.18148721E+00    0.48644161E+00
    9   -0.11056715E+04   -0.11480901E+00    0.27940666E+00
   10   -0.11057264E+04   -0.54916789E-01    0.13727959E+00
   11   -0.11058545E+04   -0.12810408E+00    0.20932043E+00
   12   -0.11058189E+04    0.35642055E-01    0.20962627E+00
   13   -0.11058241E+04   -0.52656112E-02    0.16794598E+00
   14   -0.11058680E+04   -0.43899571E-01    0.14231816E+00
   15   -0.11058561E+04    0.11890697E-01    0.10705809E+00
   16   -0.11058849E+04   -0.28720666E-01    0.67312625E-01
   17   -0.11058873E+04   -0.24882871E-02    0.84999948E-01
   18   -0.11058889E+04   -0.16061032E-02    0.38006884E-01
   19   -0.11058908E+04   -0.18513905E-02    0.21013972E-01
   20   -0.11058911E+04   -0.34043185E-03    0.32176608E-01
   21   -0.11058910E+04    0.18068483E-03    0.18332888E-01
   22   -0.11058920E+04   -0.10143871E-02    0.32255482E-02
   23   -0.11058922E+04   -0.27173896E-03    0.10601686E-01
   24   -0.11058922E+04    0.55824269E-04    0.46575646E-02
   25   -0.11058922E+04   -0.47796568E-04    0.24484246E-02
   26   -0.11058922E+04   -0.67106969E-05    0.27995349E-02
   27   -0.11058922E+04   -0.19804093E-05    0.77695713E-03
   28   -0.11058922E+04   -0.49295629E-05    0.38202809E-03
   29   -0.11058922E+04   -0.16144645E-06    0.19052582E-03
   30   -0.11058922E+04   -0.28100590E-06    0.16750920E-03
   31   -0.11058922E+04   -0.13944828E-07    0.28944327E-04
   32   -0.11058922E+04   -0.19939307E-07    0.15915256E-04
   33   -0.11058922E+04   -0.78443918E-09    0.52229773E-04
   34   -0.11058922E+04   -0.50226845E-09    0.14947458E-04
   35   -0.11058922E+04    0.96633812E-09    0.50837843E-05

Total Energy:                    -1105.8922493366 H       -30092.8592 eV
Extrapolated to 0K:              -1105.9001055773 H       -30093.0730 eV
Total Mermin free energy:        -1105.9079618180 H       -30093.2868 eV
Force related energy:            -1105.9079618180 H       -30093.2868 eV

Volume:                              0.556962E+05 au^3   0.825332E+04 A^3
Pressure:                           -0.349291E-04 au    -0.102765E+10 Pa
>> Charges saved for restart in charges.bin

total energy  -1.1059080E+03 H       energy change -5.4213978E-03 H
gradient norm  2.4471659E-01 H/a0    max. gradient  1.6537747E-01 H/a0
step length    1.3908417E-01 a0      max. step      3.4020117E-02 a0

--------------------------------------------------------------------------------

***  Geometry step: 10

 iSCC Total electronic   Diff electronic      SCC error    
    1   -0.11058922E+04    0.00000000E+00    0.25254311E+00
    2   -0.11057545E+04    0.13776369E+00    0.60832497E+00
    3   -0.11045429E+04    0.12116081E+01    0.55544959E+00
    4   -0.11048467E+04   -0.30380763E+00    0.50094195E+00
    5   -0.11051479E+04   -0.30126129E+00    0.48588065E+00
    6   -0.11053720E+04   -0.22400559E+00    0.29439376E+00
    7   -0.11056813E+04   -0.30938148E+00    0.53320368E+00
    8   -0.11052171E+04    0.46424646E+00    0.55937766E+00
    9   -0.11053925E+04   -0.17539968E+00    0.52739192E+00
   10   -0.11050228E+04    0.36964709E+00    0.44178515E+00
   11   -0.11053753E+04   -0.35246164E+00    0.31824801E+00
   12   -0.11057364E+04   -0.36113505E+00    0.47631657E+00
   13   -0.11054002E+04    0.33624557E+00    0.46262296E+00
   14   -0.11053529E+04    0.47325355E-01    0.46586673E+00
   15   -0.11054786E+04   -0.12573418E+00    0.41600339E+00
   16   -0.11056766E+04   -0.19796517E+00    0.28509545E+00
   17   -0.11057965E+04   -0.11993268E+00    0.28114072E+00
   18   -0.11057846E+04    0.11869754E-01    0.13660304E+00
   19   -0.11058616E+04   -0.76978575E-01    0.89283240E-01
   20   -0.11058752E+04   -0.13585436E-01    0.14066129E+00
   21   -0.11058797E+04   -0.45417186E-02    0.53939641E-01
   22   -0.11058927E+04   -0.13001409E-01    0.43308993E-01
   23   -0.11058913E+04    0.14025933E-02    0.39025112E-01
   24   -0.11058920E+04   -0.62506494E-03    0.25928479E-01
   25   -0.11058945E+04   -0.25493621E-02    0.14926888E-01
   26   -0.11058946E+04   -0.77131868E-04    0.91811562E-02
   27   -0.11058949E+04   -0.33609462E-03    0.10204046E-01
   28   -0.11058949E+04    0.23601440E-04    0.79989283E-02
   29   -0.11058950E+04   -0.81326073E-04    0.63210434E-02
   30   -0.11058951E+04   -0.75425314E-04    0.20814570E-02
   31   -0.11058951E+04   -0.38787211E-04    0.16017869E-02
   32   -0.11058951E+04   -0.43354878E-05    0.15225639E-02
   33   -0.11058951E+04   -0.47768049E-06    0.32777848E-03
   34   -0.11058951E+04   -0.17198433E-05    0.16151808E-03
   35   -0.11058951E+04   -0.91285528E-07    0.95543485E-04
   36   -0.11058951E+04   -0.66418124E-08    0.35346520E-04
   37   -0.11058951E+04   -0.21293545E-07    0.26827655E-04
   38   -0.11058951E+04    0.76706783E-08    0.15929156E-04
   39   -0.11058951E+04   -0.42332431E-08    0.67769140E-05

Total Energy:                    -1105.8950984678 H       -30092.9367 eV
Extrapolated to 0K:              -1105.9029562980 H       -30093.1506 eV
Total Mermin free energy:        -1105.9108141281 H       -30093.3644 eV
Force related energy:            -1105.9108141281 H       -30093.3644 eV

Volume:                              0.555234E+05 au^3   0.822773E+04 A^3
Pressure:                           -0.364187E-04 au    -0.107148E+10 Pa
>> Charges saved for restart in charges.bin

total energy  -1.1059108E+03 H       energy change -2.8523101E-03 H
gradient norm  3.9103447E-01 H/a0    max. gradient  2.1060825E-01 H/a0
step length    4.3456769E-01 a0      max. step      8.0524436E-02 a0

--------------------------------------------------------------------------------

***  Geometry step: 11

 iSCC Total electronic   Diff electronic      SCC error    
    1   -0.11058951E+04    0.00000000E+00    0.10400873E+00
    2   -0.11058896E+04    0.54848462E-02    0.57108353E+00
    3   -0.11049479E+04    0.94168182E+00    0.49353679E+00
    4   -0.11054325E+04   -0.48453687E+00    0.21225996E+00
    5   -0.11058309E+04   -0.39838181E+00    0.32442135E+00
    6   -0.11058165E+04    0.14383847E-01    0.47688435E+00
    7   -0.11055006E+04    0.31587560E+00    0.47570227E+00
    8   -0.11055440E+04   -0.43404663E-01    0.35694812E+00
    9   -0.11056570E+04   -0.11300340E+00    0.18059967E+00
   10   -0.11058681E+04   -0.21114377E+00    0.17531233E+00
   11   -0.11058664E+04    0.17094031E-02    0.44984393E+00
   12   -0.11056734E+04    0.19307033E+00    0.25661736E+00
   13   -0.11058285E+04   -0.15518052E+00    0.21570945E+00
   14   -0.11058677E+04   -0.39133122E-01    0.17183450E+00
   15   -0.11058717E+04   -0.39884518E-02    0.20033559E+00
   16   -0.11058816E+04   -0.99295440E-02    0.14069845E+00
   17   -0.11058903E+04   -0.87464015E-02    0.35883098E-01
   18   -0.11059088E+04   -0.18494901E-01    0.51143565E-01
   19   -0.11059084E+04    0.46982288E-03    0.34848912E-01
   20   -0.11059097E+04   -0.13514614E-02    0.10972182E-01
   21   -0.11059103E+04   -0.55444314E-03    0.90373308E-02
   22   -0.11059102E+04    0.31589887E-04    0.11583922E-01
   23   -0.11059102E+04    0.22510902E-04    0.66961007E-02
   24   -0.11059103E+04   -0.77201963E-04    0.44810014E-02
   25   -0.11059103E+04   -0.49031605E-04    0.28482543E-02
   26   -0.11059104E+04   -0.82019292E-05    0.26266098E-02
   27   -0.11059104E+04   -0.53458627E-05    0.13333718E-02
   28   -0.11059104E+04   -0.32762716E-05    0.12009919E-02
   29   -0.11059104E+04   -0.11400630E-05    0.27859830E-03
   30   -0.11059104E+04   -0.74580726E-06    0.14772145E-03
   31   -0.11059104E+04   -0.62867684E-07    0.48364512E-04
   32   -0.11059104E+04   -0.28365776E-07    0.40617225E-04
   33   -0.11059104E+04   -0.61390892E-10    0.27596497E-04
   34   -0.11059104E+04    0.17621460E-09    0.13387355E-04
   35   -0.11059104E+04   -0.53410076E-09    0.40258123E-05

Total Energy:                    -1105.9103630904 H       -30093.3521 eV
Extrapolated to 0K:              -1105.9182203552 H       -30093.5659 eV
Total Mermin free energy:        -1105.9260776199 H       -30093.7797 eV
Force related energy:            -1105.9260776199 H       -30093.7797 eV

Volume:                              0.555474E+05 au^3   0.823128E+04 A^3
Pressure:                           -0.345251E-04 au    -0.101576E+10 Pa
>> Charges saved for restart in charges.bin

total energy  -1.1059261E+03 H       energy change -1.5263492E-02 H
gradient norm  9.8168678E-02 H/a0    max. gradient  4.5607336E-02 H/a0
step length    1.0199047E-01 a0      max. step      2.5023051E-02 a0

--------------------------------------------------------------------------------

***  Geometry step: 12

 iSCC Total electronic   Diff electronic      SCC error    
    1   -0.11059104E+04    0.00000000E+00    0.13647936E+00
    2   -0.11058861E+04    0.24279401E-01    0.53239366E+00
    3   -0.11044956E+04    0.13904771E+01    0.49747216E+00
    4   -0.11055836E+04   -0.10880004E+01    0.41302513E+00
    5   -0.11057223E+04   -0.13871624E+00    0.19215385E+00
    6   -0.11058334E+04   -0.11104042E+00    0.43009372E+00
    7   -0.11056221E+04    0.21122538E+00    0.48025217E+00
    8   -0.11055321E+04    0.90011461E-01    0.46316607E+00
    9   -0.11055663E+04   -0.34124703E-01    0.23240496E+00
   10   -0.11058011E+04   -0.23489810E+00    0.24936879E+00
   11   -0.11058401E+04   -0.38930435E-01    0.30284313E+00
   12   -0.11057445E+04    0.95605579E-01    0.20465543E+00
   13   -0.11058236E+04   -0.79107673E-01    0.10437640E+00
   14   -0.11058956E+04   -0.72040814E-01    0.15937001E+00
   15   -0.11058716E+04    0.24034103E-01    0.13073815E+00
   16   -0.11058965E+04   -0.24922484E-01    0.12731152E+00
   17   -0.11058990E+04   -0.24528349E-02    0.53861923E-01
   18   -0.11059049E+04   -0.58981290E-02    0.40382530E-01
   19   -0.11059060E+04   -0.11245492E-02    0.31082239E-01
   20   -0.11059089E+04   -0.29515628E-02    0.27021625E-01
   21   -0.11059093E+04   -0.35181083E-03    0.62880402E-02
   22   -0.11059097E+04   -0.42786184E-03    0.37897866E-02
   23   -0.11059097E+04   -0.77204379E-05    0.16625102E-01
   24   -0.11059096E+04    0.17333160E-03    0.11745960E-01
   25   -0.11059097E+04   -0.10526297E-03    0.35491062E-02
   26   -0.11059097E+04   -0.81079361E-04    0.23698538E-02
   27   -0.11059097E+04   -0.29906241E-05    0.83134897E-03
   28   -0.11059097E+04   -0.44664503E-05    0.60802571E-03
   29   -0.11059097E+04   -0.42046076E-06    0.20410106E-03
   30   -0.11059097E+04   -0.35274388E-06    0.10379432E-03
   31   -0.11059097E+04   -0.62887921E-07    0.39549477E-04
   32   -0.11059097E+04   -0.10711574E-07    0.98865388E-04
   33   -0.11059097E+04   -0.17178081E-08    0.39938294E-04
   34   -0.11059097E+04   -0.51177267E-08    0.20140841E-04
   35   -0.11059097E+04   -0.68212103E-11    0.62741274E-05

Total Energy:                    -1105.9097471182 H       -30093.3354 eV
Extrapolated to 0K:              -1105.9176041581 H       -30093.5492 eV
Total Mermin free energy:        -1105.9254611980 H       -30093.7630 eV
Force related energy:            -1105.9254611980 H       -30093.7630 eV

Volume:                              0.555206E+05 au^3   0.822731E+04 A^3
Pressure:                           -0.312522E-04 au    -0.919471E+09 Pa
>> Charges saved for restart in charges.bin

total energy  -1.1059255E+03 H       energy change  6.1642188E-04 H
gradient norm  3.1221638E-01 H/a0    max. gradient  2.1950284E-01 H/a0
step length    1.3245193E-01 a0      max. step      3.6738295E-02 a0

--------------------------------------------------------------------------------

***  Geometry step: 13

 iSCC Total electronic   Diff electronic      SCC error    
    1   -0.11059097E+04    0.00000000E+00    0.16937972E+00
    2   -0.11058656E+04    0.44132057E-01    0.57749909E+00
    3   -0.11044794E+04    0.13862567E+01    0.50007504E+00
    4   -0.11049843E+04   -0.50493858E+00    0.48278337E+00
    5   -0.11056460E+04   -0.66175242E+00    0.33010156E+00
    6   -0.11057172E+04   -0.71181723E-01    0.34434455E+00
    7   -0.11057170E+04    0.26463487E-03    0.48561353E+00
    8   -0.11052318E+04    0.48513085E+00    0.49053231E+00
    9   -0.11052509E+04   -0.19047346E-01    0.45854769E+00
   10   -0.11053887E+04   -0.13778590E+00    0.32281509E+00
   11   -0.11057809E+04   -0.39225861E+00    0.22484261E+00
   12   -0.11058403E+04   -0.59390972E-01    0.45090016E+00
   13   -0.11056000E+04    0.24031166E+00    0.39014218E+00
   14   -0.11054855E+04    0.11446006E+00    0.36925371E+00
   15   -0.11057366E+04   -0.25104613E+00    0.26285340E+00
   16   -0.11058347E+04   -0.98085521E-01    0.14830802E+00
   17   -0.11058740E+04   -0.39317285E-01    0.66760698E-01
   18   -0.11059137E+04   -0.39748878E-01    0.82987139E-01
   19   -0.11059123E+04    0.14279499E-02    0.68282950E-01
   20   -0.11059139E+04   -0.15452794E-02    0.27342998E-01
   21   -0.11059181E+04   -0.42857765E-02    0.21033045E-01
   22   -0.11059183E+04   -0.16594263E-03    0.14459475E-01
   23   -0.11059187E+04   -0.36681904E-03    0.11928690E-01
   24   -0.11059188E+04   -0.10619990E-03    0.56264592E-02
   25   -0.11059189E+04   -0.63815870E-04    0.76222903E-02
   26   -0.11059189E+04   -0.39367854E-04    0.35240778E-02
   27   -0.11059189E+04   -0.42847391E-04    0.27670602E-02
   28   -0.11059189E+04   -0.13128157E-04    0.21998515E-02
   29   -0.11059190E+04   -0.77443165E-05    0.13241193E-02
   30   -0.11059190E+04   -0.24017099E-05    0.57034670E-03
   31   -0.11059190E+04   -0.16346969E-05    0.33499862E-03
   32   -0.11059190E+04   -0.22212021E-06    0.20629024E-03
   33   -0.11059190E+04   -0.13114959E-06    0.72763968E-04
   34   -0.11059190E+04   -0.39321549E-07    0.66593711E-04
   35   -0.11059190E+04   -0.12323881E-07    0.25159822E-04
   36   -0.11059190E+04   -0.26575435E-08    0.33186112E-04
   37   -0.11059190E+04    0.50317794E-09    0.64646963E-05

Total Energy:                    -1105.9189579852 H       -30093.5860 eV
Extrapolated to 0K:              -1105.9268149001 H       -30093.7998 eV
Total Mermin free energy:        -1105.9346718150 H       -30094.0136 eV
Force related energy:            -1105.9346718150 H       -30094.0136 eV

Volume:                              0.554585E+05 au^3   0.821811E+04 A^3
Pressure:                           -0.265938E-04 au    -0.782416E+09 Pa
>> Charges saved for restart in charges.bin

total energy  -1.1059347E+03 H       energy change -9.2106170E-03 H
gradient norm  2.3241047E-01 H/a0    max. gradient  1.2560396E-01 H/a0
step length    2.4092073E-01 a0      max. step      4.0293680E-02 a0

--------------------------------------------------------------------------------

***  Geometry step: 14

 iSCC Total electronic   Diff electronic      SCC error    
    1   -0.11059190E+04    0.00000000E+00    0.18844071E+00
    2   -0.11058625E+04    0.56436144E-01    0.55861001E+00
    3   -0.11044904E+04    0.13720768E+01    0.54619550E+00
    4   -0.11051409E+04   -0.65049510E+00    0.48229471E+00
    5   -0.11056343E+04   -0.49335868E+00    0.27418145E+00
    6   -0.11057540E+04   -0.11973290E+00    0.47974293E+00
    7   -0.11053834E+04    0.37063085E+00    0.53408510E+00
    8   -0.11051279E+04    0.25547094E+00    0.53089428E+00
    9   -0.11053408E+04   -0.21286418E+00    0.45130907E+00
   10   -0.11055519E+04   -0.21114233E+00    0.18952383E+00
   11   -0.11058466E+04   -0.29467754E+00    0.23332951E+00
   12   -0.11058087E+04    0.37889242E-01    0.43493056E+00
   13   -0.11054908E+04    0.31788535E+00    0.46516121E+00
   14   -0.11056405E+04   -0.14970377E+00    0.35796586E+00
   15   -0.11057492E+04   -0.10865737E+00    0.28651733E+00
   16   -0.11058148E+04   -0.65586599E-01    0.25293747E+00
   17   -0.11058137E+04    0.10561917E-02    0.46649640E-01
   18   -0.11059050E+04   -0.91255559E-01    0.50980988E-01
   19   -0.11059037E+04    0.13149663E-02    0.83408857E-01
   20   -0.11059026E+04    0.10610085E-02    0.45730462E-01
   21   -0.11059014E+04    0.11918289E-02    0.26056172E-01
   22   -0.11059067E+04   -0.53090035E-02    0.26020394E-01
   23   -0.11059071E+04   -0.33859681E-03    0.13306606E-01
   24   -0.11059072E+04   -0.13298588E-03    0.18053568E-01
   25   -0.11059073E+04   -0.87938457E-04    0.80059676E-02
   26   -0.11059076E+04   -0.27176579E-03    0.84293657E-02
   27   -0.11059076E+04   -0.87885285E-05    0.48707100E-02
   28   -0.11059076E+04   -0.33099147E-04    0.29945498E-02
   29   -0.11059076E+04   -0.18730915E-04    0.13018491E-02
   30   -0.11059076E+04   -0.56891818E-05    0.90898636E-03
   31   -0.11059076E+04   -0.13691433E-05    0.46820518E-03
   32   -0.11059076E+04   -0.10283281E-05    0.11416970E-03
   33   -0.11059076E+04   -0.17883190E-06    0.80770681E-04
   34   -0.11059076E+04   -0.56911631E-08    0.71814407E-04
   35   -0.11059076E+04   -0.65849690E-08    0.25031049E-04
   36   -0.11059076E+04   -0.35827270E-08    0.13418140E-04
   37   -0.11059076E+04    0.16007107E-09    0.69815860E-05

Total Energy:                    -1105.9076278633 H       -30093.2777 eV
Extrapolated to 0K:              -1105.9154851207 H       -30093.4915 eV
Total Mermin free energy:        -1105.9233423782 H       -30093.7053 eV
Force related energy:            -1105.9233423782 H       -30093.7053 eV

Volume:                              0.554077E+05 au^3   0.821058E+04 A^3
Pressure:                           -0.253895E-04 au    -0.746985E+09 Pa
>> Charges saved for restart in charges.bin

total energy  -1.1059233E+03 H       energy change  1.1329437E-02 H
gradient norm  4.6656306E-01 H/a0    max. gradient  3.5076719E-01 H/a0
step length    1.9721075E-01 a0      max. step      6.5538766E-02 a0

--------------------------------------------------------------------------------

***  Geometry step: 15

 iSCC Total electronic   Diff electronic      SCC error    
    1   -0.11059076E+04    0.00000000E+00    0.99534856E-01
    2   -0.11059091E+04   -0.14694560E-02    0.56815242E+00
    3   -0.11050034E+04    0.90572411E+00    0.47420904E+00
    4   -0.11054697E+04   -0.46629457E+00    0.26098197E+00
    5   -0.11058359E+04   -0.36619337E+00    0.27867038E+00
    6   -0.11057868E+04    0.49093907E-01    0.50484727E+00
    7   -0.11054390E+04    0.34772301E+00    0.39373213E+00
    8   -0.11056997E+04   -0.26068817E+00    0.31219730E+00
    9   -0.11057824E+04   -0.82686910E-01    0.31144207E+00
   10   -0.11056940E+04    0.88385227E-01    0.41713405E+00
   11   -0.11056735E+04    0.20560426E-01    0.35947552E+00
   12   -0.11056377E+04    0.35775748E-01    0.23304455E+00
   13   -0.11058912E+04   -0.25346330E+00    0.63897705E-01
   14   -0.11059230E+04   -0.31824330E-01    0.18686763E+00
   15   -0.11058766E+04    0.46412364E-01    0.48226528E-01
   16   -0.11059241E+04   -0.47516696E-01    0.52942114E-01
   17   -0.11059237E+04    0.39289635E-03    0.19333197E-01
   18   -0.11059270E+04   -0.33260468E-02    0.11480991E-01
   19   -0.11059273E+04   -0.27513140E-03    0.18917592E-01
   20   -0.11059270E+04    0.29377707E-03    0.30812365E-01
   21   -0.11059265E+04    0.51031537E-03    0.14085928E-01
   22   -0.11059273E+04   -0.81984122E-03    0.55738694E-02
   23   -0.11059274E+04   -0.12791790E-03    0.50805465E-02
   24   -0.11059275E+04   -0.37481451E-04    0.15921046E-02
   25   -0.11059275E+04   -0.33676369E-04    0.17730673E-02
   26   -0.11059275E+04   -0.80239715E-07    0.16266089E-02
   27   -0.11059275E+04   -0.51541087E-06    0.67765034E-03
   28   -0.11059275E+04   -0.22799115E-05    0.29094679E-03
   29   -0.11059275E+04   -0.57775924E-06    0.14458274E-03
   30   -0.11059275E+04   -0.70374199E-07    0.61520204E-04
   31   -0.11059275E+04   -0.35762241E-07    0.26912750E-04
   32   -0.11059275E+04   -0.14051693E-08    0.22530730E-04
   33   -0.11059275E+04   -0.16741524E-08    0.20859080E-04
   34   -0.11059275E+04    0.27239366E-09    0.57818112E-05

Total Energy:                    -1105.9275165442 H       -30093.8189 eV
Extrapolated to 0K:              -1105.9353743234 H       -30094.0327 eV
Total Mermin free energy:        -1105.9432321027 H       -30094.2465 eV
Force related energy:            -1105.9432321027 H       -30094.2465 eV

Volume:                              0.554039E+05 au^3   0.821001E+04 A^3
Pressure:                           -0.279163E-04 au    -0.821325E+09 Pa
>> Charges saved for restart in charges.bin

total energy  -1.1059432E+03 H       energy change -1.9889725E-02 H
gradient norm  6.3298341E-02 H/a0    max. gradient  2.9042424E-02 H/a0
step length    8.5603370E-02 a0      max. step      5.8944828E-02 a0

--------------------------------------------------------------------------------

***  Geometry step: 16

 iSCC Total electronic   Diff electronic      SCC error    
    1   -0.11059275E+04    0.00000000E+00    0.76298215E-01
    2   -0.11059185E+04    0.90096282E-02    0.54453057E+00
    3   -0.11051024E+04    0.81612923E+00    0.42684587E+00
    4   -0.11055047E+04   -0.40236526E+00    0.16098271E+00
    5   -0.11058891E+04   -0.38436624E+00    0.12923164E+00
    6   -0.11059126E+04   -0.23450013E-01    0.36117491E+00
    7   -0.11057887E+04    0.12389708E+00    0.29905869E+00
    8   -0.11057749E+04    0.13744006E-01    0.26350151E+00
    9   -0.11058223E+04   -0.47359989E-01    0.93272273E-01
   10   -0.11059153E+04   -0.92973521E-01    0.14967654E+00
   11   -0.11059010E+04    0.14209602E-01    0.14010502E+00
   12   -0.11059069E+04   -0.59020898E-02    0.16831088E-01
   13   -0.11059298E+04   -0.22812126E-01    0.52358589E-01
   14   -0.11059257E+04    0.40724359E-02    0.37582219E-01
   15   -0.11059275E+04   -0.17738450E-02    0.17910334E-01
   16   -0.11059300E+04   -0.25876205E-02    0.10751168E-01
   17   -0.11059304E+04   -0.39592166E-03    0.28376242E-02
   18   -0.11059306E+04   -0.11780319E-03    0.21273893E-02
   19   -0.11059306E+04   -0.71158411E-07    0.73000852E-02
   20   -0.11059305E+04    0.72779227E-04    0.23365242E-02
   21   -0.11059306E+04   -0.71470616E-04    0.34336761E-02
   22   -0.11059305E+04    0.12947586E-04    0.28009133E-02
   23   -0.11059306E+04   -0.63839643E-05    0.17777166E-02
   24   -0.11059306E+04   -0.87006467E-05    0.30345146E-03
   25   -0.11059306E+04   -0.56974297E-05    0.26052767E-03
   26   -0.11059306E+04    0.16679223E-07    0.17301319E-03
   27   -0.11059306E+04   -0.11451516E-06    0.22521401E-03
   28   -0.11059306E+04    0.34338655E-07    0.55563603E-04
   29   -0.11059306E+04   -0.72738203E-07    0.66262954E-04
   30   -0.11059306E+04    0.18007995E-08    0.10416985E-04
   31   -0.11059306E+04   -0.53262283E-08    0.48128649E-05

Total Energy:                    -1105.9305657203 H       -30093.9019 eV
Extrapolated to 0K:              -1105.9384238416 H       -30094.1157 eV
Total Mermin free energy:        -1105.9462819628 H       -30094.3295 eV
Force related energy:            -1105.9462819628 H       -30094.3295 eV

Volume:                              0.553601E+05 au^3   0.820352E+04 A^3
Pressure:                           -0.257698E-04 au    -0.758172E+09 Pa
>> Charges saved for restart in charges.bin

total energy  -1.1059463E+03 H       energy change -3.0498602E-03 H
gradient norm  5.8890807E-02 H/a0    max. gradient  3.3304207E-02 H/a0
step length    1.3815651E-01 a0      max. step      1.2753219E-02 a0

--------------------------------------------------------------------------------

***  Geometry step: 17

 iSCC Total electronic   Diff electronic      SCC error    
    1   -0.11059306E+04    0.00000000E+00    0.18558666E+00
    2   -0.11058540E+04    0.76560159E-01    0.63430535E+00
    3   -0.11045905E+04    0.12635529E+01    0.54197643E+00
    4   -0.11048109E+04   -0.22046836E+00    0.49823370E+00
    5   -0.11052540E+04   -0.44303998E+00    0.44010673E+00
    6   -0.11055006E+04   -0.24664424E+00    0.28095181E+00
    7   -0.11057459E+04   -0.24530492E+00    0.44281781E+00
    8   -0.11055700E+04    0.17593781E+00    0.46522606E+00
    9   -0.11052588E+04    0.31114812E+00    0.39563934E+00
   10   -0.11057984E+04   -0.53961092E+00    0.12327945E+00
   11   -0.11059000E+04   -0.10155840E+00    0.36449325E+00
   12   -0.11058095E+04    0.90512240E-01    0.30954649E+00
   13   -0.11057777E+04    0.31755986E-01    0.27938918E+00
   14   -0.11057670E+04    0.10702584E-01    0.30205725E+00
   15   -0.11058285E+04   -0.61511372E-01    0.81212499E-01
   16   -0.11059176E+04   -0.89099105E-01    0.99869569E-01
   17   -0.11059151E+04    0.25426284E-02    0.52394957E-01
   18   -0.11059268E+04   -0.11714950E-01    0.57629652E-01
   19   -0.11059274E+04   -0.56487134E-03    0.25072697E-01
   20   -0.11059306E+04   -0.32735418E-02    0.23973457E-01
   21   -0.11059309E+04   -0.26789320E-03    0.14652492E-01
   22   -0.11059314E+04   -0.46158787E-03    0.11877047E-01
   23   -0.11059314E+04   -0.31814219E-04    0.68255325E-02
   24   -0.11059315E+04   -0.11267036E-03    0.54471345E-02
   25   -0.11059316E+04   -0.65731193E-04    0.39371043E-02
   26   -0.11059316E+04   -0.21588825E-04    0.18003790E-02
   27   -0.11059316E+04   -0.48434597E-05    0.88258191E-03
   28   -0.11059316E+04   -0.42702543E-05    0.80937519E-03
   29   -0.11059316E+04   -0.52060000E-06    0.26248104E-03
   30   -0.11059316E+04   -0.75936191E-06    0.12174626E-03
   31   -0.11059316E+04   -0.84292651E-07    0.63437040E-04
   32   -0.11059316E+04   -0.24561132E-07    0.50471956E-04
   33   -0.11059316E+04    0.11968950E-08    0.19310917E-04
   34   -0.11059316E+04   -0.48305537E-08    0.14110965E-04
   35   -0.11059316E+04   -0.13476438E-08    0.54258598E-05

Total Energy:                    -1105.9316157196 H       -30093.9304 eV
Extrapolated to 0K:              -1105.9394746011 H       -30094.1443 eV
Total Mermin free energy:        -1105.9473334826 H       -30094.3581 eV
Force related energy:            -1105.9473334826 H       -30094.3581 eV

Volume:                              0.552474E+05 au^3   0.818683E+04 A^3
Pressure:                           -0.214770E-04 au    -0.631875E+09 Pa
>> Charges saved for restart in charges.bin

total energy  -1.1059473E+03 H       energy change -1.0515198E-03 H
gradient norm  2.2208219E-01 H/a0    max. gradient  1.7058425E-01 H/a0
step length    3.6835799E-01 a0      max. step      3.5127004E-02 a0

--------------------------------------------------------------------------------

***  Geometry step: 18

 iSCC Total electronic   Diff electronic      SCC error    
    1   -0.11059316E+04    0.00000000E+00    0.93163785E-01
    2   -0.11059119E+04    0.19693673E-01    0.56824034E+00
    3   -0.11046665E+04    0.12454589E+01    0.44807162E+00
    4   -0.11051103E+04   -0.44381246E+00    0.24834114E+00
    5   -0.11058374E+04   -0.72708190E+00    0.22026559E+00
    6   -0.11058417E+04   -0.43349408E-02    0.48065895E+00
    7   -0.11054566E+04    0.38511838E+00    0.44217333E+00
    8   -0.11054734E+04   -0.16804407E-01    0.37118784E+00
    9   -0.11056264E+04   -0.15306442E+00    0.11178458E+00
   10   -0.11059199E+04   -0.29348807E+00    0.21534289E+00
   11   -0.11058478E+04    0.72162545E-01    0.33207296E+00
   12   -0.11058221E+04    0.25685701E-01    0.19395385E+00
   13   -0.11058620E+04   -0.39930940E-01    0.20159090E+00
   14   -0.11059048E+04   -0.42769229E-01    0.14082362E+00
   15   -0.11059101E+04   -0.53308608E-02    0.14184723E+00
   16   -0.11059181E+04   -0.80072306E-02    0.50027386E-01
   17   -0.11059336E+04   -0.15508183E-01    0.43504011E-01
   18   -0.11059353E+04   -0.16325216E-02    0.19340231E-01
   19   -0.11059366E+04   -0.13828001E-02    0.16361324E-01
   20   -0.11059367E+04   -0.42627498E-04    0.16961311E-01
   21   -0.11059364E+04    0.31921234E-03    0.83445323E-02
   22   -0.11059370E+04   -0.60184623E-03    0.62688863E-02
   23   -0.11059370E+04   -0.60031394E-04    0.44787310E-02
   24   -0.11059370E+04    0.31416866E-05    0.31360736E-02
   25   -0.11059370E+04   -0.12224285E-04    0.18312227E-02
   26   -0.11059371E+04   -0.13723732E-04    0.48126764E-03
   27   -0.11059371E+04   -0.57777586E-05    0.48757231E-03
   28   -0.11059371E+04    0.13654949E-06    0.28955057E-03
   29   -0.11059371E+04   -0.31055197E-06    0.43872510E-04
   30   -0.11059371E+04   -0.13275508E-06    0.73473151E-04
   31   -0.11059371E+04    0.75331172E-08    0.35213330E-04
   32   -0.11059371E+04   -0.15261094E-07    0.20313251E-04
   33   -0.11059371E+04    0.42236934E-08    0.11256260E-04
   34   -0.11059371E+04   -0.16475497E-08    0.52958303E-05

Total Energy:                    -1105.9370587100 H       -30094.0785 eV
Extrapolated to 0K:              -1105.9449180884 H       -30094.2924 eV
Total Mermin free energy:        -1105.9527774669 H       -30094.5063 eV
Force related energy:            -1105.9527774669 H       -30094.5063 eV

Volume:                              0.551925E+05 au^3   0.817868E+04 A^3
Pressure:                           -0.212584E-04 au    -0.625443E+09 Pa
>> Charges saved for restart in charges.bin

total energy  -1.1059528E+03 H       energy change -5.4439843E-03 H
gradient norm  1.0719270E-01 H/a0    max. gradient  5.5291124E-02 H/a0
step length    2.0456321E-01 a0      max. step      3.8539863E-02 a0

--------------------------------------------------------------------------------

***  Geometry step: 19

 iSCC Total electronic   Diff electronic      SCC error    
    1   -0.11059371E+04    0.00000000E+00    0.26438121E-01
    2   -0.11059370E+04    0.10714922E-03    0.43302407E+00
    3   -0.11054736E+04    0.46335384E+00    0.96733910E-01
    4   -0.11059187E+04   -0.44512895E+00    0.73822504E-01
    5   -0.11059277E+04   -0.89530087E-02    0.32363514E+00
    6   -0.11057612E+04    0.16648712E+00    0.47596481E-01
    7   -0.11059361E+04   -0.17494241E+00    0.10629375E+00
    8   -0.11059263E+04    0.97945880E-02    0.19179237E+00
    9   -0.11058596E+04    0.66770636E-01    0.33214597E-01
   10   -0.11059369E+04   -0.77329368E-01    0.43094594E-01
   11   -0.11059350E+04    0.18631830E-02    0.32371381E-01
   12   -0.11059381E+04   -0.30178766E-02    0.11500007E-01
   13   -0.11059388E+04   -0.73417711E-03    0.28436837E-01
   14   -0.11059362E+04    0.25686003E-02    0.71580297E-02
   15   -0.11059389E+04   -0.27043155E-02    0.17085004E-01
   16   -0.11059388E+04    0.15578504E-03    0.35045617E-02
   17   -0.11059389E+04   -0.17658095E-03    0.10488403E-01
   18   -0.11059388E+04    0.10979325E-03    0.42698580E-02
   19   -0.11059390E+04   -0.12459869E-03    0.57320298E-02
   20   -0.11059389E+04    0.34943844E-04    0.11013237E-02
   21   -0.11059390E+04   -0.46095191E-04    0.17883700E-02
   22   -0.11059390E+04    0.19837496E-05    0.59937925E-03
   23   -0.11059390E+04   -0.34182938E-05    0.23454377E-03
   24   -0.11059390E+04   -0.25447207E-06    0.24239837E-03
   25   -0.11059390E+04    0.34330697E-07    0.22298678E-03
   26   -0.11059390E+04   -0.43542286E-07    0.85513244E-04
   27   -0.11059390E+04   -0.47680032E-07    0.87612579E-04
   28   -0.11059390E+04   -0.42400643E-08    0.28680067E-04
   29   -0.11059390E+04   -0.55329110E-08    0.19340449E-04
   30   -0.11059390E+04   -0.63892003E-10    0.30511318E-05

Total Energy:                    -1105.9389722157 H       -30094.1306 eV
Extrapolated to 0K:              -1105.9468316618 H       -30094.3445 eV
Total Mermin free energy:        -1105.9546911079 H       -30094.5583 eV
Force related energy:            -1105.9546911079 H       -30094.5583 eV

Volume:                              0.551999E+05 au^3   0.817978E+04 A^3
Pressure:                           -0.225525E-04 au    -0.663519E+09 Pa
>> Charges saved for restart in charges.bin

total energy  -1.1059547E+03 H       energy change -1.9136410E-03 H
gradient norm  7.9469034E-02 H/a0    max. gradient  3.7918283E-02 H/a0
step length    6.8315929E-02 a0      max. step      2.3461548E-02 a0

--------------------------------------------------------------------------------

***  Geometry step: 20

 iSCC Total electronic   Diff electronic      SCC error    
    1   -0.11059390E+04    0.00000000E+00    0.44247786E-01
    2   -0.11059386E+04    0.35539150E-03    0.50002655E+00
    3   -0.11051317E+04    0.80691960E+00    0.27849119E+00
    4   -0.11058756E+04   -0.74388159E+00    0.33657944E-01
    5   -0.11059393E+04   -0.63710213E-01    0.23308730E+00
    6   -0.11058480E+04    0.91262418E-01    0.10554008E+00
    7   -0.11059238E+04   -0.75819885E-01    0.33640600E-01
    8   -0.11059400E+04   -0.16178668E-01    0.11824442E+00
    9   -0.11059064E+04    0.33620731E-01    0.62449671E-01
   10   -0.11059366E+04   -0.30195793E-01    0.72717570E-01
   11   -0.11059341E+04    0.24523825E-02    0.62853119E-01
   12   -0.11059387E+04   -0.45830381E-02    0.46850814E-01
   13   -0.11059391E+04   -0.33526202E-03    0.14820858E-01
   14   -0.11059416E+04   -0.25254893E-02    0.12246099E-01
   15   -0.11059419E+04   -0.26856330E-03    0.50809881E-02
   16   -0.11059420E+04   -0.13655338E-03    0.30907085E-02
   17   -0.11059420E+04   -0.24589491E-04    0.12309709E-01
   18   -0.11059418E+04    0.18112528E-03    0.17739988E-02
   19   -0.11059420E+04   -0.18548939E-03    0.15570769E-02
   20   -0.11059420E+04   -0.29921082E-05    0.84062443E-03
   21   -0.11059420E+04   -0.28635593E-05    0.10628483E-02
   22   -0.11059420E+04   -0.23876692E-06    0.44523620E-03
   23   -0.11059420E+04   -0.11178213E-06    0.40341863E-03
   24   -0.11059420E+04   -0.36225879E-06    0.25295237E-03
   25   -0.11059420E+04   -0.15860496E-06    0.27368050E-03
   26   -0.11059420E+04   -0.32078788E-07    0.80945785E-04
   27   -0.11059420E+04   -0.11048860E-06    0.25841275E-04
   28   -0.11059420E+04   -0.26449470E-07    0.23528984E-04
   29   -0.11059420E+04   -0.34765435E-09    0.76998318E-05

Total Energy:                    -1105.9420325989 H       -30094.2139 eV
Extrapolated to 0K:              -1105.9498922356 H       -30094.4278 eV
Total Mermin free energy:        -1105.9577518724 H       -30094.6416 eV
Force related energy:            -1105.9577518724 H       -30094.6416 eV

Volume:                              0.551832E+05 au^3   0.817730E+04 A^3
Pressure:                           -0.230252E-04 au    -0.677425E+09 Pa
>> Charges saved for restart in charges.bin

total energy  -1.1059578E+03 H       energy change -3.0607646E-03 H
gradient norm  5.1230372E-02 H/a0    max. gradient  2.8367448E-02 H/a0
step length    9.5855880E-02 a0      max. step      1.0869800E-02 a0

--------------------------------------------------------------------------------

***  Geometry step: 21

 iSCC Total electronic   Diff electronic      SCC error    
    1   -0.11059420E+04    0.00000000E+00    0.11611519E+00
    2   -0.11059034E+04    0.38623257E-01    0.59009619E+00
    3   -0.11046091E+04    0.12942700E+01    0.50647067E+00
    4   -0.11049932E+04   -0.38406185E+00    0.34155621E+00
    5   -0.11056874E+04   -0.69421604E+00    0.27532538E+00
    6   -0.11057814E+04   -0.93978267E-01    0.32767170E+00
    7   -0.11056312E+04    0.15021413E+00    0.38345797E+00
    8   -0.11054864E+04    0.14475455E+00    0.36667212E+00
    9   -0.11056921E+04   -0.20571516E+00    0.11349029E+00
   10   -0.11059337E+04   -0.24157452E+00    0.20192018E+00
   11   -0.11059028E+04    0.30921169E-01    0.18896841E+00
   12   -0.11058355E+04    0.67290100E-01    0.18223398E+00
   13   -0.11058712E+04   -0.35707873E-01    0.18771618E+00
   14   -0.11058835E+04   -0.12335355E-01    0.48290290E-01
   15   -0.11059443E+04   -0.60730587E-01    0.29832507E-01
   16   -0.11059449E+04   -0.67059954E-03    0.40176973E-01
   17   -0.11059446E+04    0.36309971E-03    0.29097888E-01
   18   -0.11059449E+04   -0.30145888E-03    0.18991951E-01
   19   -0.11059460E+04   -0.11189455E-02    0.13554611E-01
   20   -0.11059461E+04   -0.99691121E-04    0.16247433E-01
   21   -0.11059461E+04    0.52455672E-04    0.41040428E-02
   22   -0.11059464E+04   -0.30861219E-03    0.20077788E-02
   23   -0.11059464E+04   -0.15289228E-04    0.14371247E-02
   24   -0.11059464E+04   -0.54470927E-05    0.96803468E-03
   25   -0.11059464E+04   -0.50003837E-06    0.53680641E-03
   26   -0.11059464E+04   -0.99514773E-06    0.29588726E-03
   27   -0.11059464E+04   -0.35046514E-06    0.58113493E-03
   28   -0.11059464E+04    0.87702620E-06    0.15004797E-03
   29   -0.11059464E+04   -0.91488641E-06    0.67343398E-04
   30   -0.11059464E+04   -0.51927373E-07    0.72468931E-04
   31   -0.11059464E+04    0.34128789E-08    0.32436471E-04
   32   -0.11059464E+04   -0.11952807E-07    0.16930834E-04
   33   -0.11059464E+04   -0.35613539E-08    0.67729628E-05

Total Energy:                    -1105.9463854464 H       -30094.3323 eV
Extrapolated to 0K:              -1105.9542457443 H       -30094.5462 eV
Total Mermin free energy:        -1105.9621060422 H       -30094.7601 eV
Force related energy:            -1105.9621060422 H       -30094.7601 eV

Volume:                              0.551007E+05 au^3   0.816509E+04 A^3
Pressure:                           -0.229514E-04 au    -0.675253E+09 Pa
>> Charges saved for restart in charges.bin

total energy  -1.1059621E+03 H       energy change -4.3541698E-03 H
gradient norm  6.4529996E-02 H/a0    max. gradient  3.2743629E-02 H/a0
step length    2.9340465E-01 a0      max. step      2.4356313E-02 a0

--------------------------------------------------------------------------------

***  Geometry step: 22

 iSCC Total electronic   Diff electronic      SCC error    
    1   -0.11059464E+04    0.00000000E+00    0.11586936E+00
    2   -0.11059042E+04    0.42196417E-01    0.59182525E+00
    3   -0.11046044E+04    0.12997513E+01    0.50148022E+00
    4   -0.11049091E+04   -0.30463307E+00    0.31179730E+00
    5   -0.11056767E+04   -0.76764756E+00    0.26217927E+00
    6   -0.11058913E+04   -0.21459339E+00    0.31471896E+00
    7   -0.11056631E+04    0.22825442E+00    0.33710799E+00
    8   -0.11055931E+04    0.69913147E-01    0.25376703E+00
    9   -0.11058243E+04   -0.23117456E+00    0.48692957E-01
   10   -0.11059463E+04   -0.12202551E+00    0.24087714E+00
   11   -0.11058531E+04    0.93233484E-01    0.18562946E+00
   12   -0.11058678E+04   -0.14698736E-01    0.18048693E+00
   13   -0.11058778E+04   -0.10000708E-01    0.74638375E-01
   14   -0.11059385E+04   -0.60659535E-01    0.16877315E-01
   15   -0.11059488E+04   -0.10314810E-01    0.30791236E-01
   16   -0.11059479E+04    0.90059866E-03    0.24706251E-01
   17   -0.11059478E+04    0.77636018E-04    0.20748244E-01
   18   -0.11059484E+04   -0.60515903E-03    0.16284434E-01
   19   -0.11059488E+04   -0.38840682E-03    0.32685898E-01
   20   -0.11059484E+04    0.42162717E-03    0.14019038E-01
   21   -0.11059489E+04   -0.51644818E-03    0.32042037E-02
   22   -0.11059494E+04   -0.48957787E-03    0.19923307E-02
   23   -0.11059494E+04   -0.90624835E-05    0.20835396E-02
   24   -0.11059494E+04   -0.47644828E-05    0.19114377E-02
   25   -0.11059494E+04    0.23987245E-05    0.46101966E-03
   26   -0.11059494E+04   -0.96849512E-05    0.21022554E-03
   27   -0.11059494E+04   -0.44858461E-06    0.53766908E-03
   28   -0.11059494E+04    0.75173875E-06    0.27441005E-03
   29   -0.11059494E+04   -0.54546967E-06    0.66613184E-04
   30   -0.11059494E+04   -0.25344548E-06    0.37728275E-04
   31   -0.11059494E+04    0.49515165E-08    0.32750422E-04
   32   -0.11059494E+04    0.98475539E-09    0.76514423E-05

Total Energy:                    -1105.9494059317 H       -30094.4145 eV
Extrapolated to 0K:              -1105.9572669932 H       -30094.6284 eV
Total Mermin free energy:        -1105.9651280546 H       -30094.8423 eV
Force related energy:            -1105.9651280546 H       -30094.8423 eV

Volume:                              0.550148E+05 au^3   0.815236E+04 A^3
Pressure:                           -0.224978E-04 au    -0.661909E+09 Pa
>> Charges saved for restart in charges.bin

total energy  -1.1059651E+03 H       energy change -3.0220124E-03 H
gradient norm  5.0761180E-02 H/a0    max. gradient  2.1335129E-02 H/a0
step length    2.8976508E-01 a0      max. step      2.3982312E-02 a0

--------------------------------------------------------------------------------

***  Geometry step: 23

 iSCC Total electronic   Diff electronic      SCC error    
    1   -0.11059494E+04    0.00000000E+00    0.10065349E+00
    2   -0.11059184E+04    0.30985054E-01    0.58052225E+00
    3   -0.11046929E+04    0.12255120E+01    0.47117849E+00
    4   -0.11050682E+04   -0.37529370E+00    0.24424922E+00
    5   -0.11057836E+04   -0.71536238E+00    0.20762218E+00
    6   -0.11058982E+04   -0.11463848E+00    0.28494179E+00
    7   -0.11057180E+04    0.18016723E+00    0.28273715E+00
    8   -0.11057065E+04    0.11545589E-01    0.18018553E+00
    9   -0.11059042E+04   -0.19767056E+00    0.36684567E-01
   10   -0.11059491E+04   -0.44985412E-01    0.16493910E+00
   11   -0.11058809E+04    0.68283781E-01    0.12996098E+00
   12   -0.11059151E+04   -0.34233789E-01    0.12124305E+00
   13   -0.11059209E+04   -0.57571159E-02    0.65234781E-01
   14   -0.11059460E+04   -0.25164911E-01    0.17830027E-01
   15   -0.11059510E+04   -0.49771398E-02    0.36309087E-01
   16   -0.11059506E+04    0.39535363E-03    0.20254852E-01
   17   -0.11059508E+04   -0.19462215E-03    0.30764601E-01
   18   -0.11059504E+04    0.41073947E-03    0.17696777E-01
   19   -0.11059511E+04   -0.66946326E-03    0.20824665E-01
   20   -0.11059513E+04   -0.26683445E-03    0.11968205E-01
   21   -0.11059515E+04   -0.15805723E-03    0.46381163E-02
   22   -0.11059518E+04   -0.32267981E-03    0.26005673E-02
   23   -0.11059518E+04   -0.25618342E-04    0.21119500E-02
   24   -0.11059518E+04   -0.66674570E-05    0.16473226E-02
   25   -0.11059518E+04   -0.43155478E-05    0.37237517E-03
   26   -0.11059518E+04   -0.55513824E-05    0.13583265E-03
   27   -0.11059518E+04   -0.24334486E-06    0.29817701E-03
   28   -0.11059518E+04    0.35234848E-06    0.12097573E-03
   29   -0.11059518E+04   -0.29019702E-06    0.19744615E-04
   30   -0.11059518E+04   -0.66576604E-07    0.15041781E-04
   31   -0.11059518E+04    0.49312803E-08    0.92719222E-05

Total Energy:                    -1105.9518437011 H       -30094.4809 eV
Extrapolated to 0K:              -1105.9597054586 H       -30094.6948 eV
Total Mermin free energy:        -1105.9675672161 H       -30094.9087 eV
Force related energy:            -1105.9675672161 H       -30094.9087 eV

Volume:                              0.549316E+05 au^3   0.814002E+04 A^3
Pressure:                           -0.213734E-04 au    -0.628827E+09 Pa
>> Charges saved for restart in charges.bin

total energy  -1.1059676E+03 H       energy change -2.4391615E-03 H
gradient norm  3.4774770E-02 H/a0    max. gradient  6.9019273E-03 H/a0
step length    2.5616781E-01 a0      max. step      2.0666183E-02 a0

--------------------------------------------------------------------------------

***  Geometry step: 24

 iSCC Total electronic   Diff electronic      SCC error    
    1   -0.11059518E+04    0.00000000E+00    0.84319295E-01
    2   -0.11059312E+04    0.20666896E-01    0.56863131E+00
    3   -0.11047831E+04    0.11480901E+01    0.40249116E+00
    4   -0.11053517E+04   -0.56863620E+00    0.18998072E+00
    5   -0.11058683E+04   -0.51661358E+00    0.17715883E+00
    6   -0.11058918E+04   -0.23513427E-01    0.29331346E+00
    7   -0.11057733E+04    0.11856596E+00    0.30468866E+00
    8   -0.11057313E+04    0.41962325E-01    0.21965751E+00
    9   -0.11058803E+04   -0.14896441E+00    0.53866179E-01
   10   -0.11059454E+04   -0.65067111E-01    0.10212246E+00
   11   -0.11059369E+04    0.84673435E-02    0.13885768E+00
   12   -0.11059322E+04    0.47196167E-02    0.67048317E-01
   13   -0.11059417E+04   -0.95653906E-02    0.69709961E-01
   14   -0.11059438E+04   -0.21081255E-02    0.20059063E-01
   15   -0.11059531E+04   -0.92376055E-02    0.33402292E-01
   16   -0.11059530E+04    0.96488125E-04    0.23241202E-01
   17   -0.11059531E+04   -0.79031379E-04    0.31950814E-01
   18   -0.11059528E+04    0.23050300E-03    0.26565215E-01
   19   -0.11059526E+04    0.20569164E-03    0.34676842E-01
   20   -0.11059528E+04   -0.17172575E-03    0.59171805E-02
   21   -0.11059541E+04   -0.12798070E-02    0.49316010E-02
   22   -0.11059541E+04   -0.17856895E-04    0.16395761E-02
   23   -0.11059541E+04   -0.34523170E-04    0.21865206E-02
   24   -0.11059541E+04    0.17414679E-05    0.17895014E-02
   25   -0.11059541E+04   -0.11701579E-05    0.95817970E-03
   26   -0.11059541E+04   -0.19873892E-05    0.19961302E-03
   27   -0.11059541E+04   -0.70297870E-06    0.12782821E-03
   28   -0.11059541E+04   -0.37315658E-07    0.10964831E-03
   29   -0.11059541E+04    0.30054480E-07    0.38809883E-04
   30   -0.11059541E+04   -0.84432259E-07    0.20120778E-04
   31   -0.11059541E+04    0.18028686E-07    0.38050750E-05

Total Energy:                    -1105.9541297505 H       -30094.5431 eV
Extrapolated to 0K:              -1105.9619923539 H       -30094.7570 eV
Total Mermin free energy:        -1105.9698549573 H       -30094.9710 eV
Force related energy:            -1105.9698549573 H       -30094.9710 eV

Volume:                              0.548508E+05 au^3   0.812806E+04 A^3
Pressure:                           -0.198991E-04 au    -0.585451E+09 Pa
>> Charges saved for restart in charges.bin

total energy  -1.1059699E+03 H       energy change -2.2877412E-03 H
gradient norm  3.9835511E-02 H/a0    max. gradient  1.5906314E-02 H/a0
step length    2.3762475E-01 a0      max. step      1.9663190E-02 a0

--------------------------------------------------------------------------------

***  Geometry step: 25

 iSCC Total electronic   Diff electronic      SCC error    
    1   -0.11059541E+04    0.00000000E+00    0.61770580E-01
    2   -0.11059456E+04    0.85621602E-02    0.55011710E+00
    3   -0.11049528E+04    0.99275015E+00    0.28981792E+00
    4   -0.11057376E+04   -0.78482876E+00    0.93281932E-01
    5   -0.11059349E+04   -0.19721554E+00    0.14600120E+00
    6   -0.11059057E+04    0.29112652E-01    0.32175929E+00
    7   -0.11058173E+04    0.88475338E-01    0.22705681E+00
[...]

Volume:                              0.511634E+05 au^3   0.758163E+04 A^3
Pressure:                            0.306366E-08 au     0.901361E+05 Pa
>> Charges saved for restart in charges.bin

total energy  -1.1061179E+03 H       energy change -4.4034305E-06 H
gradient norm  1.5927408E-03 H/a0    max. gradient  1.5371258E-04 H/a0
step length    2.2026920E-02 a0      max. step      2.0218722E-03 a0

--------------------------------------------------------------------------------

***  Geometry step: 290

 iSCC Total electronic   Diff electronic      SCC error    
    1   -0.11061022E+04    0.00000000E+00    0.76809926E-02
    2   -0.11061020E+04    0.13863592E-03    0.17301226E+00
    3   -0.11060358E+04    0.66252279E-01    0.23541039E-01
    4   -0.11061005E+04   -0.64697963E-01    0.85173558E-02
    5   -0.11061020E+04   -0.15483245E-02    0.24028940E-01
    6   -0.11061011E+04    0.88352110E-03    0.86887695E-03
    7   -0.11061022E+04   -0.10307773E-02    0.16467910E-01
    8   -0.11061016E+04    0.55814898E-03    0.35711214E-02
    9   -0.11061022E+04   -0.53942001E-03    0.26470207E-02
   10   -0.11061022E+04   -0.69328460E-05    0.62782009E-02
   11   -0.11061021E+04    0.19043693E-04    0.27601868E-03
   12   -0.11061022E+04   -0.32544401E-04    0.10549648E-02
   13   -0.11061022E+04    0.13786239E-05    0.37065959E-03
   14   -0.11061022E+04   -0.10737349E-05    0.13736585E-02
   15   -0.11061022E+04    0.21252333E-05    0.25309956E-03
   16   -0.11061022E+04   -0.23922039E-05    0.67500846E-03
   17   -0.11061022E+04    0.74361355E-06    0.42818259E-04
   18   -0.11061022E+04   -0.84337148E-06    0.41169421E-04
   19   -0.11061022E+04   -0.64092092E-08    0.23555520E-03
   20   -0.11061022E+04    0.60772436E-07    0.25843194E-04
   21   -0.11061022E+04   -0.61176252E-07    0.23522645E-03
   22   -0.11061022E+04    0.53636995E-07    0.24187179E-04
   23   -0.11061022E+04   -0.50527660E-07    0.84197367E-05

Total Energy:                    -1106.1021745388 H       -30098.5716 eV
Extrapolated to 0K:              -1106.1100449305 H       -30098.7857 eV
Total Mermin free energy:        -1106.1179153221 H       -30098.9999 eV
Force related energy:            -1106.1179153221 H       -30098.9999 eV

Volume:                              0.511635E+05 au^3   0.758166E+04 A^3
Pressure:                           -0.331147E-07 au    -0.974266E+06 Pa
>> Charges saved for restart in charges.bin

total energy  -1.1061179E+03 H       energy change -4.3851387E-06 H
gradient norm  1.6094613E-03 H/a0    max. gradient  1.6491670E-04 H/a0
step length    2.5841741E-02 a0      max. step      2.5288514E-03 a0

--------------------------------------------------------------------------------

***  Geometry step: 291

 iSCC Total electronic   Diff electronic      SCC error    
    1   -0.11061022E+04    0.00000000E+00    0.78027852E-02
    2   -0.11061021E+04    0.11410403E-03    0.14727289E+00
    3   -0.11060541E+04    0.47970723E-01    0.15618324E-01
    4   -0.11061015E+04   -0.47441301E-01    0.83738871E-02
    5   -0.11061020E+04   -0.44344835E-03    0.21609092E-01
    6   -0.11061011E+04    0.90897490E-03    0.10231750E-02
    7   -0.11061022E+04   -0.11105913E-02    0.11614435E-01
    8   -0.11061019E+04    0.24062373E-03    0.16118183E-02
    9   -0.11061022E+04   -0.23828605E-03    0.71847717E-02
   10   -0.11061021E+04    0.94167374E-04    0.20040825E-02
   11   -0.11061022E+04   -0.93285562E-04    0.27815742E-03
   12   -0.11061022E+04   -0.51622867E-05    0.51318441E-03
   13   -0.11061022E+04    0.15898286E-06    0.53664991E-03
   14   -0.11061022E+04    0.21464075E-08    0.34630155E-03
   15   -0.11061022E+04   -0.29669991E-07    0.39575427E-03
   16   -0.11061022E+04    0.89841478E-07    0.77491936E-03
   17   -0.11061022E+04    0.69801968E-06    0.46662352E-04
   18   -0.11061022E+04   -0.10601916E-05    0.59455513E-04
   19   -0.11061022E+04   -0.34751793E-08    0.78466888E-04
   20   -0.11061022E+04    0.64574124E-08    0.14096524E-04
   21   -0.11061022E+04   -0.91622496E-08    0.91090193E-04
   22   -0.11061022E+04    0.16947524E-07    0.37798025E-04
   23   -0.11061022E+04   -0.13897079E-07    0.99179542E-05

Total Energy:                    -1106.1021781664 H       -30098.5717 eV
Extrapolated to 0K:              -1106.1100485536 H       -30098.7858 eV
Total Mermin free energy:        -1106.1179189407 H       -30099.0000 eV
Force related energy:            -1106.1179189407 H       -30099.0000 eV

Volume:                              0.511639E+05 au^3   0.758171E+04 A^3
Pressure:                           -0.183940E-07 au    -0.541170E+06 Pa
>> Charges saved for restart in charges.bin

total energy  -1.1061179E+03 H       energy change -3.6186634E-06 H
gradient norm  1.5691824E-03 H/a0    max. gradient  2.1528866E-04 H/a0
step length    2.8823292E-02 a0      max. step      2.5846687E-03 a0

--------------------------------------------------------------------------------

***  Geometry step: 292

 iSCC Total electronic   Diff electronic      SCC error    
    1   -0.11061022E+04    0.00000000E+00    0.11302460E-02
    2   -0.11061022E+04   -0.55786131E-07    0.27932180E-01
    3   -0.11060999E+04    0.22428160E-02    0.33708080E-02
    4   -0.11061021E+04   -0.22091112E-02    0.25775191E-02
    5   -0.11061022E+04   -0.30775219E-04    0.71320734E-02
    6   -0.11061021E+04    0.72283140E-04    0.91718639E-03
    7   -0.11061022E+04   -0.77490840E-04    0.19523383E-02
    8   -0.11061022E+04    0.37814543E-05    0.53658401E-03
    9   -0.11061022E+04   -0.44181190E-05    0.40348137E-02
   10   -0.11061022E+04    0.29304138E-04    0.10755215E-03
   11   -0.11061022E+04   -0.29840459E-04    0.18196644E-02
   12   -0.11061022E+04    0.27196979E-05    0.24097259E-03
   13   -0.11061022E+04   -0.26223463E-05    0.40022660E-03
   14   -0.11061022E+04    0.40797204E-07    0.89819241E-04
   15   -0.11061022E+04   -0.14323109E-06    0.70729512E-03
   16   -0.11061022E+04    0.13121373E-05    0.23816273E-04
   17   -0.11061022E+04   -0.13325957E-05    0.28402023E-03
   18   -0.11061022E+04    0.72302782E-07    0.31628020E-04
   19   -0.11061022E+04   -0.72691364E-07    0.23531130E-03
   20   -0.11061022E+04    0.55703140E-07    0.30974304E-04
   21   -0.11061022E+04   -0.55514192E-07    0.16995926E-03
   22   -0.11061022E+04    0.24975861E-07    0.13679475E-04
   23   -0.11061022E+04   -0.25986083E-07    0.59358679E-05

Total Energy:                    -1106.1021817007 H       -30098.5718 eV
Extrapolated to 0K:              -1106.1100520834 H       -30098.7859 eV
Total Mermin free energy:        -1106.1179224661 H       -30099.0001 eV
Force related energy:            -1106.1179224661 H       -30099.0001 eV

Volume:                              0.511639E+05 au^3   0.758171E+04 A^3
Pressure:                            0.435394E-07 au     0.128097E+07 Pa
>> Charges saved for restart in charges.bin

total energy  -1.1061179E+03 H       energy change -3.5254031E-06 H
gradient norm  1.4126582E-03 H/a0    max. gradient  2.0011296E-04 H/a0
step length    8.8912646E-03 a0      max. step      7.2509658E-04 a0

--------------------------------------------------------------------------------

***  Geometry step: 293

 iSCC Total electronic   Diff electronic      SCC error    
    1   -0.11061022E+04    0.00000000E+00    0.25813018E-02
    2   -0.11061022E+04    0.10520937E-04    0.49950898E-01
    3   -0.11060956E+04    0.65990487E-02    0.95961735E-02
    4   -0.11061018E+04   -0.62771465E-02    0.15787585E-02
    5   -0.11061022E+04   -0.33001414E-03    0.10647028E-01
    6   -0.11061019E+04    0.26358704E-03    0.56211915E-03
    7   -0.11061022E+04   -0.26904191E-03    0.40067974E-02
    8   -0.11061022E+04    0.23339556E-04    0.13054977E-02
    9   -0.11061022E+04   -0.20308741E-04    0.23637697E-02
   10   -0.11061022E+04    0.65489662E-05    0.53579616E-03
   11   -0.11061022E+04   -0.98058679E-05    0.74604116E-03
   12   -0.11061022E+04    0.71797422E-06    0.72956550E-03
   13   -0.11061022E+04   -0.55843657E-06    0.24425160E-03
   14   -0.11061022E+04   -0.47013373E-06    0.11987121E-03
   15   -0.11061022E+04   -0.36877964E-07    0.64653290E-03
   16   -0.11061022E+04    0.77456662E-06    0.57120665E-04
   17   -0.11061022E+04   -0.82122028E-06    0.35962033E-03
   18   -0.11061022E+04    0.20923562E-06    0.74597328E-04
   19   -0.11061022E+04   -0.20720381E-06    0.10808262E-03
   20   -0.11061022E+04    0.16049853E-07    0.28807995E-04
   21   -0.11061022E+04   -0.21596179E-07    0.92860429E-04
   22   -0.11061022E+04    0.13299086E-07    0.16900470E-04
   23   -0.11061022E+04   -0.15366595E-07    0.64775347E-05

Total Energy:                    -1106.1021853725 H       -30098.5719 eV
Extrapolated to 0K:              -1106.1100557478 H       -30098.7860 eV
Total Mermin free energy:        -1106.1179261230 H       -30099.0002 eV
Force related energy:            -1106.1179261230 H       -30099.0002 eV

Volume:                              0.511639E+05 au^3   0.758171E+04 A^3
Pressure:                            0.124548E-06 au     0.366433E+07 Pa
>> Charges saved for restart in charges.bin

total energy  -1.1061179E+03 H       energy change -3.6568788E-06 H
gradient norm  1.3056925E-03 H/a0    max. gradient  1.2269478E-04 H/a0
step length    1.0675022E-02 a0      max. step      1.0734868E-03 a0

--------------------------------------------------------------------------------

***  Geometry step: 294

 iSCC Total electronic   Diff electronic      SCC error    
    1   -0.11061022E+04    0.00000000E+00    0.30960252E-02
    2   -0.11061022E+04    0.15863691E-04    0.54352798E-01
    3   -0.11060955E+04    0.66915265E-02    0.11873680E-01
    4   -0.11061018E+04   -0.63133118E-02    0.14617302E-02
    5   -0.11061022E+04   -0.39094823E-03    0.57882865E-02
    6   -0.11061021E+04    0.91680829E-04    0.40994257E-03
    7   -0.11061022E+04   -0.96819967E-04    0.35939164E-02
    8   -0.11061022E+04    0.24126491E-04    0.12066895E-02
    9   -0.11061022E+04   -0.21920050E-04    0.14323815E-02
   10   -0.11061022E+04    0.67205178E-06    0.25135042E-03
   11   -0.11061022E+04   -0.32022317E-05    0.89085463E-03
   12   -0.11061022E+04    0.13038286E-05    0.30524514E-03
   13   -0.11061022E+04   -0.11569753E-05    0.19013476E-03
   14   -0.11061022E+04   -0.17568550E-06    0.47930808E-03
   15   -0.11061022E+04    0.60014827E-06    0.10977647E-03
   16   -0.11061022E+04   -0.62858089E-06    0.56595986E-04
   17   -0.11061022E+04   -0.18470246E-07    0.14677928E-03
   18   -0.11061022E+04    0.30395540E-07    0.12374257E-04
   19   -0.11061022E+04   -0.38569624E-07    0.90911236E-04
   20   -0.11061022E+04    0.98511919E-08    0.32890723E-04
   21   -0.11061022E+04   -0.87190983E-08    0.15443459E-03
   22   -0.11061022E+04    0.38897042E-07    0.76595518E-05

Total Energy:                    -1106.1021877890 H       -30098.5719 eV
Extrapolated to 0K:              -1106.1100581530 H       -30098.7861 eV
Total Mermin free energy:        -1106.1179285170 H       -30099.0003 eV
Force related energy:            -1106.1179285170 H       -30099.0003 eV

Volume:                              0.511640E+05 au^3   0.758173E+04 A^3
Pressure:                            0.172532E-06 au     0.507608E+07 Pa
>> Charges saved for restart in charges.bin

total energy  -1.1061179E+03 H       energy change -2.3939651E-06 H
gradient norm  1.3061106E-03 H/a0    max. gradient  1.7134460E-04 H/a0
step length    9.8307532E-03 a0      max. step      8.3412554E-04 a0

--------------------------------------------------------------------------------

***  Geometry step: 295

 iSCC Total electronic   Diff electronic      SCC error    
    1   -0.11061022E+04    0.00000000E+00    0.55920782E-02
    2   -0.11061021E+04    0.55941687E-04    0.11011451E+00
    3   -0.11060778E+04    0.24344854E-01    0.99515504E-02
    4   -0.11061021E+04   -0.24277762E-01    0.99357779E-02
    5   -0.11061020E+04    0.27582822E-04    0.32624122E-01
    6   -0.11061005E+04    0.15360458E-02    0.69814666E-03
    7   -0.11061022E+04   -0.16881677E-02    0.97683245E-02
    8   -0.11061020E+04    0.18623269E-03    0.12374857E-02
    9   -0.11061022E+04   -0.18426882E-03    0.99354230E-02
   10   -0.11061021E+04    0.12869905E-03    0.35332863E-02
   11   -0.11061022E+04   -0.10663660E-03    0.40098283E-03
   12   -0.11061022E+04   -0.24565670E-04    0.60384546E-03
   13   -0.11061022E+04    0.28933982E-06    0.10397957E-02
   14   -0.11061022E+04    0.96973031E-06    0.73004053E-03
   15   -0.11061022E+04    0.15818841E-06    0.27691827E-03
   16   -0.11061022E+04   -0.14309073E-05    0.50635221E-03
   17   -0.11061022E+04    0.50088579E-06    0.45871563E-04
   18   -0.11061022E+04   -0.69154567E-06    0.39029382E-03
   19   -0.11061022E+04    0.33458082E-06    0.37424674E-04
   20   -0.11061022E+04   -0.33873243E-06    0.36298014E-04
   21   -0.11061022E+04    0.12953478E-08    0.23045968E-03
   22   -0.11061022E+04    0.86876753E-07    0.11946079E-04
   23   -0.11061022E+04   -0.87110948E-07    0.10978629E-04
   24   -0.11061022E+04    0.41836756E-09    0.47066481E-05

Total Energy:                    -1106.1021900417 H       -30098.5720 eV
Extrapolated to 0K:              -1106.1100603564 H       -30098.7862 eV
Total Mermin free energy:        -1106.1179306711 H       -30099.0003 eV
Force related energy:            -1106.1179306711 H       -30099.0003 eV

Volume:                              0.511648E+05 au^3   0.758184E+04 A^3
Pressure:                            0.217613E-06 au     0.640240E+07 Pa
>> Charges saved for restart in charges.bin

total energy  -1.1061179E+03 H       energy change -2.1541032E-06 H
gradient norm  1.4569522E-03 H/a0    max. gradient  1.9125575E-04 H/a0
step length    6.2940904E-02 a0      max. step      4.6447436E-03 a0

--------------------------------------------------------------------------------

***  Geometry step: 296

 iSCC Total electronic   Diff electronic      SCC error    
    1   -0.11061022E+04    0.00000000E+00    0.42308061E-02
    2   -0.11061022E+04    0.25720047E-04    0.78712724E-01
    3   -0.11060932E+04    0.89541221E-02    0.92668612E-02
    4   -0.11061021E+04   -0.88719088E-02    0.53307792E-02
    5   -0.11061022E+04   -0.78016712E-04    0.15656113E-01
    6   -0.11061017E+04    0.49961396E-03    0.23377086E-03
    7   -0.11061022E+04   -0.52936214E-03    0.28159208E-02
    8   -0.11061022E+04    0.12517105E-04    0.72547530E-03
    9   -0.11061022E+04   -0.11866211E-04    0.30168641E-02
   10   -0.11061022E+04    0.18727177E-04    0.45185641E-03
   11   -0.11061022E+04   -0.19092785E-04    0.41312614E-03
   12   -0.11061022E+04    0.81117832E-07    0.68594058E-03
   13   -0.11061022E+04    0.24756127E-06    0.10092887E-03
   14   -0.11061022E+04   -0.68331292E-06    0.79911630E-04
   15   -0.11061022E+04    0.86572527E-08    0.36246726E-03
   16   -0.11061022E+04    0.28708018E-06    0.52749493E-04
   17   -0.11061022E+04   -0.29779153E-06    0.12455578E-03
   18   -0.11061022E+04    0.15586920E-07    0.15452218E-03
   19   -0.11061022E+04    0.11932570E-07    0.19231649E-04
   20   -0.11061022E+04   -0.32912112E-07    0.16985425E-04
   21   -0.11061022E+04   -0.11984866E-08    0.66711368E-04
   22   -0.11061022E+04    0.58257683E-08    0.55345335E-05

Total Energy:                    -1106.1021899511 H       -30098.5720 eV
Extrapolated to 0K:              -1106.1100602589 H       -30098.7861 eV
Total Mermin free energy:        -1106.1179305667 H       -30099.0003 eV
Force related energy:            -1106.1179305667 H       -30099.0003 eV

Volume:                              0.511657E+05 au^3   0.758197E+04 A^3
Pressure:                            0.202794E-06 au     0.596639E+07 Pa
>> Charges saved for restart in charges.bin

total energy  -1.1061179E+03 H       energy change  1.0438748E-07 H
gradient norm  1.4565391E-03 H/a0    max. gradient  1.7281903E-04 H/a0
step length    1.6851319E-02 a0      max. step      1.5065293E-03 a0

--------------------------------------------------------------------------------

***  Geometry step: 297

 iSCC Total electronic   Diff electronic      SCC error    
    1   -0.11061022E+04    0.00000000E+00    0.54837965E-02
    2   -0.11061021E+04    0.49638656E-04    0.97889420E-01
    3   -0.11060857E+04    0.16407585E-01    0.14515985E-01
    4   -0.11061017E+04   -0.16002524E-01    0.43223931E-02
    5   -0.11061021E+04   -0.40481846E-03    0.15537952E-01
    6   -0.11061016E+04    0.52252872E-03    0.42177160E-03
    7   -0.11061022E+04   -0.57345355E-03    0.67249340E-02
    8   -0.11061021E+04    0.53443885E-04    0.15945256E-02
    9   -0.11061022E+04   -0.46748442E-04    0.35473116E-02
   10   -0.11061022E+04    0.19199636E-04    0.62659582E-03
   11   -0.11061022E+04   -0.25932558E-04    0.10597850E-02
   12   -0.11061022E+04    0.11720938E-05    0.12514461E-02
   13   -0.11061022E+04    0.72205853E-06    0.19481677E-03
   14   -0.11061022E+04   -0.21953197E-05    0.13988650E-03
   15   -0.11061022E+04   -0.37834980E-08    0.11227380E-02
   16   -0.11061022E+04    0.32785395E-05    0.67477529E-04
   17   -0.11061022E+04   -0.33272070E-05    0.42546794E-03
   18   -0.11061022E+04    0.23848042E-06    0.40457852E-04
   19   -0.11061022E+04   -0.24544124E-06    0.29298993E-03
   20   -0.11061022E+04    0.19326581E-06    0.22477527E-04
   21   -0.11061022E+04   -0.19575418E-06    0.19178596E-03
   22   -0.11061022E+04    0.72476496E-07    0.11438312E-04
   23   -0.11061022E+04   -0.71867134E-07    0.99881251E-05

Total Energy:                    -1106.1021913946 H       -30098.5720 eV
Extrapolated to 0K:              -1106.1100616968 H       -30098.7862 eV
Total Mermin free energy:        -1106.1179319990 H       -30099.0003 eV
Force related energy:            -1106.1179319990 H       -30099.0003 eV

Volume:                              0.511665E+05 au^3   0.758210E+04 A^3
Pressure:                            0.124607E-06 au     0.366607E+07 Pa
>> Charges saved for restart in charges.bin

total energy  -1.1061179E+03 H       energy change -1.4323227E-06 H
gradient norm  1.3740899E-03 H/a0    max. gradient  1.3172770E-04 H/a0
step length    2.1414448E-02 a0      max. step      1.8461398E-03 a0

--------------------------------------------------------------------------------

***  Geometry step: 298

 iSCC Total electronic   Diff electronic      SCC error    
    1   -0.11061022E+04    0.00000000E+00    0.19753447E-02
    2   -0.11061022E+04    0.98957646E-05    0.49520549E-01
    3   -0.11060956E+04    0.65682230E-02    0.53376725E-02
    4   -0.11061021E+04   -0.64962099E-02    0.26068032E-02
    5   -0.11061022E+04   -0.69306156E-04    0.99498674E-02
    6   -0.11061020E+04    0.19299614E-03    0.39493238E-03
    7   -0.11061022E+04   -0.20554103E-03    0.20098522E-02
    8   -0.11061022E+04    0.73919673E-05    0.11242868E-02
    9   -0.11061022E+04   -0.46808514E-05    0.32116237E-02
   10   -0.11061022E+04    0.10707609E-04    0.17038004E-03
   11   -0.11061022E+04   -0.13629274E-04    0.80104136E-03
   12   -0.11061022E+04    0.98964210E-06    0.17888803E-03
   13   -0.11061022E+04   -0.99307931E-06    0.73462903E-03
   14   -0.11061022E+04    0.87209492E-06    0.10016724E-03
   15   -0.11061022E+04   -0.90237313E-06    0.61107893E-03
   16   -0.11061022E+04    0.93634139E-06    0.26866326E-04
   17   -0.11061022E+04   -0.95885434E-06    0.20547600E-03
   18   -0.11061022E+04    0.83585519E-07    0.26726545E-04
   19   -0.11061022E+04   -0.85403599E-07    0.19738101E-03
   20   -0.11061022E+04    0.97968723E-07    0.16430183E-04
   21   -0.11061022E+04   -0.97403245E-07    0.52430674E-04
   22   -0.11061022E+04    0.39347015E-08    0.19764742E-04
   23   -0.11061022E+04   -0.21900632E-08    0.73691714E-05

Total Energy:                    -1106.1021916044 H       -30098.5720 eV
Extrapolated to 0K:              -1106.1100619134 H       -30098.7862 eV
