# vtk DataFile Version 1.0
Cube
ASCII

DATASET POLYDATA
POINTS 281 float
6.447235 0.164133 10.560586
6.357522 15.272190 11.593469
6.636175 14.498590 12.281774
6.892569 1.514068 10.125617
7.041070 16.455444 11.529413
8.544604 16.961266 12.722011
0.147482 10.586582 6.406966
15.244155 10.657775 5.394473
14.474973 10.388977 4.697502
1.504383 10.156710 6.832931
16.449497 10.011097 5.419110
0.001699 8.518438 4.227021
16.992699 8.518438 4.227021
10.615467 16.851164 10.543085
10.842637 1.624340 11.750976
10.636876 2.330825 12.530523
10.077532 15.581427 9.990368
9.364250 15.792795 9.192981
9.565763 15.019704 10.769236
10.883245 14.981644 9.572050
10.089256 0.492909 11.594149
16.879369 6.470513 6.416311
1.764685 6.377742 5.372894
2.526902 6.641612 4.666238
15.539289 6.929949 6.864024
15.641065 7.826225 7.476890
14.913510 7.181076 6.010057
15.058953 6.157708 7.460578
0.569199 7.039711 5.419110
6.435341 16.869684 6.464056
6.355144 1.734951 5.383259
6.632097 2.485104 4.668957
6.870311 15.527225 6.930799
7.024929 0.545241 5.469743
8.522006 0.001019 4.284620
8.522006 16.992019 4.284620
16.876820 10.547843 10.549032
1.707256 10.653187 11.685051
2.426655 10.404609 12.440131
15.557469 10.090445 10.041681
0.515847 9.989009 11.583954
16.933231 8.489383 12.748687
10.583184 0.101266 6.466945
10.838729 15.349160 5.234247
10.642992 14.648621 4.446545
10.019593 1.351804 7.038522
9.241405 1.114100 7.764547
9.576977 1.960082 6.252178
10.798290 1.915905 7.547062
10.063090 16.462070 5.411124
0.067624 6.448594 10.546993
15.230902 6.272058 11.663472
14.489755 6.497358 12.404959
1.375761 6.948639 10.050856
1.224032 7.575267 9.171232
1.867481 7.542305 10.818000
2.015133 6.116760 9.761839
16.393087 6.987719 11.570191
10.527284 6.416651 0.145103
11.646821 6.297884 15.304643
12.390517 6.546972 14.573521
10.028088 6.884753 1.464114
11.545215 6.983131 16.484498
12.698564 8.508923 0.021579
6.436701 6.394733 16.841649
6.209021 5.244272 1.652205
6.413763 4.488852 2.384687
6.973616 6.897496 15.550333
7.929530 7.396692 15.709879
7.143526 6.072923 14.860159
6.275456 7.605681 15.109247
6.961043 5.362869 0.516187
8.490912 4.212749 -0.001189
8.490912 4.212749 16.989811
6.404588 10.546993 0.115879
5.286750 10.722171 15.279497
4.554947 10.486845 14.531893
6.905992 10.035224 1.417559
5.399230 9.989009 16.429108
4.241973 8.460499 16.943085
10.488544 10.559907 16.894831
10.654207 11.670438 1.736480
10.417182 12.401221 2.484594
9.983572 10.071925 15.585165
9.029867 9.561006 15.719563
9.818759 10.902955 14.901787
10.696514 9.375974 15.148666
9.938206 11.573590 0.575825
8.442998 12.754634 0.029055
11.621844 10.714355 1.724077
12.371147 10.480728 2.454520
11.516500 10.011437 0.554926
10.685980 5.335004 15.285953
10.446067 4.615775 14.527815
9.113293 7.463297 1.332264
9.794632 6.039281 2.108243
10.773144 7.516988 1.942071
9.979154 5.408575 16.454084
5.249030 6.208172 1.632495
4.477468 6.430074 2.342889
5.394812 6.937255 0.484074
6.226862 11.705270 15.304813
6.445026 12.471394 14.587623
7.773552 9.393814 1.257844
7.215058 10.859288 2.057440
6.133071 9.451923 1.913696
6.934197 11.593639 16.469716
15.249422 11.610630 6.365848
14.485337 12.305732 6.653676
1.436759 9.559476 7.742629
2.128463 11.021552 7.049566
1.967728 9.553699 6.055422
16.457483 11.566793 7.004710
0.045196 12.727618 8.505185
15.237189 5.317164 10.694305
14.501988 4.574657 10.452353
16.403111 5.428964 9.988499
-0.007136 4.286999 8.476130
16.983864 4.286999 8.476130
5.375782 1.745146 6.327788
4.655534 2.501925 6.568551
7.104787 15.557979 7.994265
6.079210 14.791855 6.788754
7.752484 15.214081 6.376722
5.426586 0.561892 7.011846
4.234327 0.044856 8.513001
1.754151 11.598057 10.707218
2.528431 12.298256 10.463058
15.698495 9.422019 9.191621
14.962614 10.937786 9.706788
15.024292 9.547073 10.818340
0.591627 11.533491 9.989689
11.806876 15.346951 6.189991
12.594919 14.643523 6.372644
11.643762 16.458162 6.970558
12.802209 -0.007646 8.489383
12.802209 16.983354 8.489383
1.762646 5.421658 6.340701
2.521464 4.714663 6.612727
0.565460 5.479428 6.999442
5.365758 15.299036 10.662532
4.631577 14.558908 10.412425
7.050585 1.527661 9.048047
6.139018 2.265920 10.357544
7.819598 1.775050 10.631439
5.423017 16.498941 10.008549
11.804327 1.634024 10.788775
12.576059 2.351894 10.591850
11.659564 0.509390 10.024180
14.893971 8.648589 2.083776
14.789476 6.782807 3.146223
15.055385 6.021101 3.852200
15.359864 9.982213 1.623320
16.259877 9.873980 1.017421
15.604195 10.616826 2.473040
14.591701 10.457111 1.017081
15.475403 7.964022 3.071803
8.655215 2.029065 14.930671
6.837518 2.165843 13.791255
6.111493 1.921342 13.041952
9.971508 1.560963 15.438023
8.011256 1.472440 13.902716
2.043168 8.351246 2.027876
2.204242 10.209382 3.097289
1.970446 10.967521 3.818557
1.555356 7.018472 1.586110
0.506502 7.079980 1.296923
1.631986 6.292107 2.394372
2.142565 6.673725 0.737749
1.495038 9.041931 3.031024
8.355664 14.912661 14.917079
10.201057 14.727289 13.829315
10.948661 14.941546 13.090546
7.031386 15.414745 15.367850
7.120418 16.443890 15.714976
6.315045 15.403531 14.547694
6.659962 14.794404 16.180359
9.032416 15.435304 13.891332
14.895670 8.386078 14.949192
14.667311 10.171832 13.774434
14.869504 10.894119 13.008140
15.438872 7.105126 15.470475
16.336507 7.293047 16.060233
15.712087 6.445876 14.648621
14.701293 6.616805 16.103560
15.416444 9.034794 13.905095
8.380981 2.044867 2.085645
10.207003 2.227860 3.206032
10.942034 2.011225 3.956354
7.070465 1.535137 1.604460
9.040741 1.518486 3.119887
2.028555 8.593198 14.915040
2.209510 6.803026 13.739602
1.976733 6.079380 12.983673
1.515767 9.877548 15.458242
1.469212 7.943123 13.892691
8.592519 14.944094 2.068994
6.816789 14.769427 3.267369
6.112172 14.997106 4.041989
9.879247 15.440741 1.515597
7.970818 15.487976 3.116829
2.088534 14.926763 8.644001
3.098139 14.905015 6.746786
3.782027 15.205756 5.977774
1.654753 15.335737 10.005150
3.055152 15.539799 7.957735
14.994558 14.914530 8.379961
14.835862 13.828635 10.228582
15.074585 13.105838 10.983832
15.490355 15.378894 7.058061
16.493164 15.793134 7.160687
15.545746 14.549563 6.354634
14.828725 16.146717 6.663530
15.543537 13.905944 9.061130
14.984193 2.067125 8.575188
13.788366 2.254536 6.798949
13.019524 2.027876 6.086856
15.539289 1.549749 9.852911
13.945193 1.519165 7.941933
2.069844 2.123195 8.366878
2.148852 3.177657 10.238267
1.881923 3.891619 10.992497
1.624679 1.673614 7.022550
0.740808 1.041548 7.114981
1.359960 2.527751 6.402549
2.411872 1.098128 6.540685
1.493679 3.121756 9.039382
3.107654 2.212568 10.246762
3.810402 1.945809 11.011357
3.058720 1.546181 9.053145
2.158197 13.921406 6.745087
1.889059 13.226134 5.974545
0.661799 15.783789 9.959954
1.597324 14.474463 10.668139
2.351554 16.064311 10.413444
1.521374 13.933300 7.955186
13.874171 14.790835 10.210232
13.133533 15.040603 10.944243
13.975267 15.477951 9.031396
14.738163 3.228460 6.783147
14.932880 3.990336 6.054233
16.436754 0.961351 9.658704
15.815053 2.372283 10.509953
14.807487 0.913946 10.346500
15.494603 3.109693 7.916107
6.814071 3.124815 14.756004
6.058991 3.849821 14.989120
9.875509 1.228619 16.471245
10.702631 2.367866 15.417463
10.330188 0.735370 14.827536
7.973027 3.038501 15.477102
6.782297 13.808586 2.304829
6.037922 13.064210 2.100427
9.712565 15.905615 0.543542
10.577917 14.617867 1.373043
10.314217 16.175262 2.189290
7.914918 13.919367 1.545671
13.712417 10.168774 14.743431
12.945613 10.886304 14.959046
13.857690 9.029697 15.487296
10.210572 3.165083 2.219874
10.955287 3.892298 1.963480
7.203674 0.570728 1.113590
6.639403 2.236016 0.892877
6.385558 1.391903 2.438378
9.045329 3.050224 1.511859
3.198046 6.805405 14.674447
3.970627 6.087026 14.866445
0.940112 9.694725 16.366411
2.339831 10.540877 15.714126
0.868070 10.358733 14.728818
3.082167 7.946691 15.419332
10.188993 13.795333 14.820400
10.930990 13.071346 15.093615
9.011856 13.912061 15.507686
13.808416 6.797250 2.203563
13.072026 6.056442 1.961271
13.875530 7.986620 1.531229
3.163384 10.182876 2.132710
3.903003 10.914679 1.873598
3.060759 8.998264 1.455959
POINT_DATA 281
SCALARS my_scalars float
LOOKUP_TABLE default
1.7
1.7
1.09
1.7
1.55
1.39
1.7
1.7
1.09
1.7
1.55
1.39
1.39
1.7
1.7
1.09
1.7
1.09
1.09
1.09
1.55
1.7
1.7
1.09
1.7
1.09
1.09
1.09
1.55
1.7
1.7
1.09
1.7
1.55
1.39
1.39
1.7
1.7
1.09
1.7
1.55
1.39
1.7
1.7
1.09
1.7
1.09
1.09
1.09
1.55
1.7
1.7
1.09
1.7
1.09
1.09
1.09
1.55
1.7
1.7
1.09
1.7
1.55
1.39
1.7
1.7
1.09
1.7
1.09
1.09
1.09
1.55
1.39
1.39
1.7
1.7
1.09
1.7
1.55
1.39
1.7
1.7
1.09
1.7
1.09
1.09
1.09
1.55
1.39
1.7
1.09
1.55
1.7
1.09
1.09
1.09
1.09
1.55
1.7
1.09
1.55
1.7
1.09
1.09
1.09
1.09
1.55
1.7
1.09
1.09
1.09
1.09
1.55
1.39
1.7
1.09
1.55
1.39
1.39
1.7
1.09
1.09
1.09
1.09
1.55
1.39
1.7
1.09
1.09
1.09
1.09
1.55
1.7
1.09
1.55
1.39
1.39
1.7
1.09
1.55
1.7
1.09
1.09
1.09
1.09
1.55
1.7
1.09
1.55
1.7
1.7
1.09
1.7
1.09
1.09
1.09
1.55
1.7
1.7
1.09
1.7
1.55
1.7
1.7
1.09
1.7
1.09
1.09
1.09
1.55
1.7
1.7
1.09
1.7
1.09
1.09
1.09
1.55
1.7
1.7
1.09
1.7
1.09
1.09
1.09
1.55
1.7
1.7
1.09
1.7
1.55
1.7
1.7
1.09
1.7
1.55
1.7
1.7
1.09
1.7
1.55
1.7
1.7
1.09
1.7
1.55
1.7
1.7
1.09
1.7
1.09
1.09
1.09
1.55
1.7
1.7
1.09
1.7
1.55
1.7
1.7
1.09
1.7
1.09
1.09
1.09
1.55
1.7
1.09
1.55
1.7
1.09
1.09
1.09
1.09
1.55
1.7
1.09
1.55
1.7
1.09
1.09
1.09
1.09
1.55
1.7
1.09
1.09
1.09
1.09
1.55
1.7
1.09
1.09
1.09
1.09
1.55
1.7
1.09
1.55
1.7
1.09
1.09
1.09
1.09
1.55
1.7
1.09
1.09
1.09
1.09
1.55
1.7
1.09
1.55
1.7
1.09
1.55
1.7
1.09
1.55
VECTORS vectors float
0.3125 0 0
0.3125 0 0
0.25 0 0
0.3125 0 0
0 0 0
0.4375 0 0
0.3125 0 0
0.3125 0 0
0.25 0 0
0.3125 0 0
0 0 0
0.4375 0 0
0.4375 0 0
0.3125 0 0
0.3125 0 0
0.25 0 0
0.3125 0 0
0.25 0 0
0.25 0 0
0.25 0 0
0 0 0
0.3125 0 0
0.3125 0 0
0.25 0 0
0.3125 0 0
0.25 0 0
0.25 0 0
0.25 0 0
0 0 0
0.3125 0 0
0.3125 0 0
0.25 0 0
0.3125 0 0
0 0 0
0.4375 0 0
0.4375 0 0
0.3125 0 0
0.3125 0 0
0.25 0 0
0.3125 0 0
0 0 0
0.4375 0 0
0.3125 0 0
0.3125 0 0
0.25 0 0
0.3125 0 0
0.25 0 0
0.25 0 0
0.25 0 0
0 0 0
0.3125 0 0
0.3125 0 0
0.25 0 0
0.3125 0 0
0.25 0 0
0.25 0 0
0.25 0 0
0 0 0
0.3125 0 0
0.3125 0 0
0.25 0 0
0.3125 0 0
0 0 0
0.4375 0 0
0.3125 0 0
0.3125 0 0
0.25 0 0
0.3125 0 0
0.25 0 0
0.25 0 0
0.25 0 0
0 0 0
0.4375 0 0
0.4375 0 0
0.3125 0 0
0.3125 0 0
0.25 0 0
0.3125 0 0
0 0 0
0.4375 0 0
0.3125 0 0
0.3125 0 0
0.25 0 0
0.3125 0 0
0.25 0 0
0.25 0 0
0.25 0 0
0 0 0
0.4375 0 0
0.3125 0 0
0.25 0 0
0 0 0
0.3125 0 0
0.25 0 0
0.25 0 0
0.25 0 0
0.25 0 0
0 0 0
0.3125 0 0
0.25 0 0
0 0 0
0.3125 0 0
0.25 0 0
0.25 0 0
0.25 0 0
0.25 0 0
0 0 0
0.3125 0 0
0.25 0 0
0.25 0 0
0.25 0 0
0.25 0 0
0 0 0
0.4375 0 0
0.3125 0 0
0.25 0 0
0 0 0
0.4375 0 0
0.4375 0 0
0.3125 0 0
0.25 0 0
0.25 0 0
0.25 0 0
0.25 0 0
0 0 0
0.4375 0 0
0.3125 0 0
0.25 0 0
0.25 0 0
0.25 0 0
0.25 0 0
0 0 0
0.3125 0 0
0.25 0 0
0 0 0
0.4375 0 0
0.4375 0 0
0.3125 0 0
0.25 0 0
0 0 0
0.3125 0 0
0.25 0 0
0.25 0 0
0.25 0 0
0.25 0 0
0 0 0
0.3125 0 0
0.25 0 0
0 0 0
0.3125 0 0
0.3125 0 0
0.25 0 0
0.3125 0 0
0.25 0 0
0.25 0 0
0.25 0 0
0 0 0
0.3125 0 0
0.3125 0 0
0.25 0 0
0.3125 0 0
0 0 0
0.3125 0 0
0.3125 0 0
0.25 0 0
0.3125 0 0
0.25 0 0
0.25 0 0
0.25 0 0
0 0 0
0.3125 0 0
0.3125 0 0
0.25 0 0
0.3125 0 0
0.25 0 0
0.25 0 0
0.25 0 0
0 0 0
0.3125 0 0
0.3125 0 0
0.25 0 0
0.3125 0 0
0.25 0 0
0.25 0 0
0.25 0 0
0 0 0
0.3125 0 0
0.3125 0 0
0.25 0 0
0.3125 0 0
0 0 0
0.3125 0 0
0.3125 0 0
0.25 0 0
0.3125 0 0
0 0 0
0.3125 0 0
0.3125 0 0
0.25 0 0
0.3125 0 0
0 0 0
0.3125 0 0
0.3125 0 0
0.25 0 0
0.3125 0 0
0 0 0
0.3125 0 0
0.3125 0 0
0.25 0 0
0.3125 0 0
0.25 0 0
0.25 0 0
0.25 0 0
0 0 0
0.3125 0 0
0.3125 0 0
0.25 0 0
0.3125 0 0
0 0 0
0.3125 0 0
0.3125 0 0
0.25 0 0
0.3125 0 0
0.25 0 0
0.25 0 0
0.25 0 0
0 0 0
0.3125 0 0
0.25 0 0
0 0 0
0.3125 0 0
0.25 0 0
0.25 0 0
0.25 0 0
0.25 0 0
0 0 0
0.3125 0 0
0.25 0 0
0 0 0
0.3125 0 0
0.25 0 0
0.25 0 0
0.25 0 0
0.25 0 0
0 0 0
0.3125 0 0
0.25 0 0
0.25 0 0
0.25 0 0
0.25 0 0
0 0 0
0.3125 0 0
0.25 0 0
0.25 0 0
0.25 0 0
0.25 0 0
0 0 0
0.3125 0 0
0.25 0 0
0 0 0
0.3125 0 0
0.25 0 0
0.25 0 0
0.25 0 0
0.25 0 0
0 0 0
0.3125 0 0
0.25 0 0
0.25 0 0
0.25 0 0
0.25 0 0
0 0 0
0.3125 0 0
0.25 0 0
0 0 0
0.3125 0 0
0.25 0 0
0 0 0
0.3125 0 0
0.25 0 0
0 0 0
