  276
Geometry Step: 1
    C      6.44729358      0.16415996     10.56059922      3.86450166
    C      6.35749934     15.27220942     11.59343330      4.00108596
    H      6.63615790     14.49858887     12.28178575      0.97394706
    C      6.89253788      1.51406019     10.12565858      4.11465804
    N      7.04104710     16.45541068     11.52940106      5.18571030
   Zn      8.54462646     16.96128620     12.72202531      1.77647819
    C      0.14745050     10.58659022      6.40696490      3.86397407
    C     15.24417219     10.65780547      5.39450909      4.00141527
    H     14.47497129     10.38894764      4.69748374      0.97273247
    C      1.50441982     10.15674735      6.83287862      4.11304163
    N     16.44948497     10.01111866      5.41913192      5.18656203
   Zn      0.00171403      8.51842794      4.22705084      1.77516336
    C     10.61550946     16.85123092     10.54309668      3.86304031
    C     10.84261302      1.62429101     11.75097586      4.00068813
    H     10.63687383      2.33081126     12.53052241      0.97168299
    C     10.07750097     15.58139584      9.99035109      4.11304531
    H      9.36427783     15.79278250      9.19299977      0.94541400
    H      9.56577514     15.01973109     10.76923530      0.93416442
    H     10.88325819     14.98162167      9.57203451      0.93438696
    N     10.08925300      0.49291011     11.59412953      5.18942555
    C     16.87940918      6.47053076      6.41625803      3.86366977
    C      1.76472027      6.37774673      5.37285173      4.00076744
    H      2.52692247      6.64160896      4.66620560      0.97430649
    C     15.53936799      6.92992921      6.86400664      4.11169356
    H     15.64108075      7.82625233      7.47691734      0.94855292
    H     14.91352538      7.18103641      6.01007300      0.93503651
    H     15.05894578      6.15775294      7.46056552      0.93217363
    N      0.56915446      7.03970679      5.41912977      5.18637915
    C      6.43536930     16.86972158      6.46404089      3.86420452
    C      6.35511372      1.73494056      5.38332019      4.00151167
    H      6.63208190      2.48513459      4.66895501      0.97335126
    C      6.87032145     15.52720416      6.93080333      4.11434957
    N      7.02491012      0.54524295      5.46975563      5.18616352
   Zn      8.52198102      0.00102954      4.28458820      1.77645017
    C     16.87683086     10.54789965     10.54900711      3.86347170
    C      1.70725929     10.65323895     11.68499758      4.00067654
    H      2.42666399     10.40458818     12.44017956      0.97243702
    C     15.55749430     10.09046955     10.04169264      4.11134196
    N      0.51586410      9.98904461     11.58395737      5.18780801
   Zn     16.93321373      8.48936732     12.74869395      1.77736741
    C     10.58317533      0.10125550      6.46694289      3.86323889
    C     10.83875485     15.34916116      5.23425741      4.00010218
    H     10.64298378     14.64863277      4.44654168      0.97254809
    C     10.01961750      1.35175888      7.03849983      4.11301093
    H      9.24140210      1.11409752      7.76456883      0.94594046
    H      9.57698290      1.96007855      6.25215966      0.93473532
    H     10.79832193      1.91593078      7.54708509      0.93334060
    N     10.06305322     16.46211403      5.41116680      5.18957495
    C      0.06765760      6.44861099     10.54699148      3.86308906
    C     15.23096397      6.27208408     11.66348149      4.00076804
    H     14.48972745      6.49736418     12.40496366      0.97371372
    C      1.37575825      6.94866331     10.05081026      4.11191011
    H      1.22403255      7.57525344      9.17123399      0.94815684
    H      1.86746733      7.54230922     10.81799339      0.93342408
    H      2.01517440      6.11678682      9.76182335      0.93439302
    N     16.39304513      6.98773090     11.57019674      5.18562796
    C     10.52731755      6.41667704      0.14510927      3.86415602
    C     11.64683052      6.29794362     15.30468809      4.00136094
    H     12.39054041      6.54698025     14.57350137      0.97233769
    C     10.02812326      6.88474025      1.46410262      4.11174760
    N     11.54517954      6.98310117     16.48448340      5.18843998
   Zn     12.69857831      8.50894542      0.02154668      1.77846519
    C      6.43670898      6.39476692     16.84163945      3.86410290
    C      6.20897819      5.24431854      1.65216745      3.99979861
    H      6.41377172      4.48879603      2.38470104      0.97170206
    C      6.97359377      6.89749776     15.55034429      4.11329859
    H      7.92954460      7.39669767     15.70988887      0.94597131
    H      7.14352649      6.07294798     14.86014633      0.93609469
    H      6.27549099      7.60566893     15.10925015      0.93313837
    N      6.96102670      5.36284025      0.51621222      5.18622999
   Zn      8.49090142      4.21277310     16.98977118      1.77492890
    C      6.40453487     10.54697352      0.11587032      3.86387867
    C      5.28677293     10.72217876     15.27953059      4.00072858
    H      4.55492979     10.48682510     14.53185897      0.97423967
    C      6.90601106     10.03521271      1.41759473      4.11147212
    N      5.39927844      9.98900770     16.42911794      5.18772052
   Zn      4.24196631      8.46048962     16.94306440      1.77749232
    C     10.48853228     10.55991566     16.89484479      3.86399191
    C     10.65419534     11.67047355      1.73650025      4.00018055
    H     10.41717937     12.40121465      2.48459756      0.97363583
    C      9.98359003     10.07190735     15.58513999      4.11282739
    H      9.02984546      9.56101891     15.71958761      0.94601969
    H      9.81876554     10.90298104     14.90180300      0.93645099
    H     10.69651055      9.37596275     15.14863369      0.93360039
    N      9.93818355     11.57359213      0.57579448      5.18462613
   Zn      8.44299741     12.75460726      0.02904096      1.77549211
    C     11.62187073     10.71430305      1.72405536      4.00160958
    H     12.37114809     10.48072679      2.45452484      0.97203328
    N     11.51655077     10.01140139      0.55495260      5.18714135
    C     10.68595231      5.33493305     15.28596500      3.99993343
    H     10.44608664      4.61576833     14.52781866      0.97344099
    H      9.11325898      7.46332214      1.33225411      0.94775280
    H      9.79463124      6.03927703      2.10824068      0.93576272
    H     10.77313844      7.51698297      1.94207556      0.93352037
    N      9.97918580      5.40856070     16.45405222      5.18394189
    C      5.24906245      6.20814591      1.63250168      4.00082529
    H      4.47748979      6.43008475      2.34289561      0.97202448
    N      5.39483601      6.93726291      0.48404323      5.18608201
    C      6.22688992     11.70529684     15.30483913      4.00022808
    H      6.44501905     12.47141602     14.58761514      0.97080971
    H      7.77355426      9.39382392      1.25781731      0.94840915
    H      7.21504260     10.85929052      2.05740672      0.93454708
    H      6.13311381      9.45192027      1.91369422      0.93398501
    N      6.93417983     11.59365253     16.46969909      5.18543333
    C     15.24943245     11.61059025      6.36580859      4.00061633
    H     14.48530886     12.30574484      6.65368952      0.97346838
    H      1.43676879      9.55943818      7.74265360      0.94629835
    H      2.12848048     11.02153074      7.04956083      0.93474387
    H      1.96771819      9.55368636      6.05544086      0.93299421
    N     16.45751556     11.56681340      7.00473957      5.18606429
   Zn      0.04519699     12.72759462      8.50518510      1.77381499
    C     15.23716765      5.31713822     10.69431174      4.00023088
    H     14.50200902      4.57469799     10.45236174      0.97402605
    N     16.40307181      5.42891804      9.98848836      5.18746334
   Zn     16.98388186      4.28701005      8.47617154      1.77550521
    C      5.37583192      1.74512070      6.32772584      4.00092242
    H      4.65551700      2.50191880      6.56854372      0.97079782
    H      7.10475114     15.55798711      7.99426401      0.94300363
    H      6.07921017     14.79187774      6.78877355      0.93873548
    H      7.75247718     15.21406632      6.37668711      0.93296983
    N      5.42657603      0.56188066      7.01186710      5.18920333
   Zn      4.23431840      0.04488420      8.51298625      1.77517268
    C      1.75407787     11.59799633     10.70723656      4.00076887
    H      2.52847447     12.29825832     10.46303141      0.97319020
    H     15.69849932      9.42197760      9.19159433      0.94928510
    H     14.96258693     10.93777179      9.70679191      0.93456592
    H     15.02427587      9.54706462     10.81837123      0.93258640
    N      0.59165663     11.53349276      9.98969585      5.18465732
    C     11.80689726     15.34692557      6.18999822      4.00040932
    H     12.59491233     14.64352573      6.37264168      0.97145137
    N     11.64372250     16.45818165      6.97057937      5.18462962
   Zn     12.80217364     16.98340467      8.48938404      1.77751234
    C      1.76265498      5.42162309      6.34073702      4.00141886
    H      2.52147301      4.71468036      6.61274331      0.97229329
    N      0.56543345      5.47941599      6.99945412      5.18490208
    C      5.36576924     15.29905129     10.66253043      4.00096182
    H      4.63159826     14.55892894     10.41243337      0.97038145
    H      7.05055476      1.52765350      9.04805610      0.94222925
    H      6.13903801      2.26586928     10.35752279      0.93891320
    H      7.81958163      1.77504500     10.63141567      0.93306216
    N      5.42300509     16.49890640     10.00855003      5.18809147
    C     11.80434998      1.63405978     10.78881309      4.00012046
    H     12.57605918      2.35188441     10.59184280      0.97253707
    N     11.65951791      0.50932421     10.02414909      5.18575735
    C     14.89401331      8.64861664      2.08376560      3.86383745
    C     14.78947723      6.78288678      3.14619882      4.00078487
    H     15.05541043      6.02108214      3.85222574      0.97229658
    C     15.35981601      9.98218474      1.62326962      4.11209696
    H     16.25986461      9.87398656      1.01742131      0.94720130
    H     15.60418922     10.61684516      2.47307215      0.93578139
    H     14.59169767     10.45710178      1.01710146      0.93283631
    N     15.47536454      7.96396171      3.07180015      5.18666380
    C      8.65526658      2.02908000     14.93070196      3.86389834
    C      6.83756048      2.16589838     13.79131196      4.00073072
    H      6.11148501      1.92133554     13.04193383      0.97142086
    C      9.97148282      1.56097506     15.43797705      4.11525448
    N      8.01123888      1.47244207     13.90271258      5.18564274
    C      2.04319478      8.35124998      2.02785417      3.86478806
    C      2.20424496     10.20941640      3.09733177      4.00092597
    H      1.97045473     10.96751941      3.81854978      0.97110817
    C      1.55533519      7.01845393      1.58609796      4.11419643
    H      0.50653711      7.07996362      1.29695563      0.94381342
    H      1.63197530      6.29213059      2.39432596      0.93809902
    H      2.14256107      6.67373452      0.73777557      0.93337866
    N      1.49504286      9.04190889      3.03103174      5.18680936
    C      8.35558744     14.91271042     14.91709755      3.86370453
    C     10.20110084     14.72733888     13.82923256      4.00102713
    H     10.94861627     14.94152337     13.09060278      0.97226029
    C      7.03142827     15.41473692     15.36780131      4.11537573
    H      7.12045326     16.44392352     15.71499334      0.94231426
    H      6.31505732     15.40354031     14.54771105      0.93764846
    H      6.65993021     14.79439273     16.18038539      0.93216921
    N      9.03242252     15.43530461     13.89134375      5.18981858
    C     14.89567340      8.38607639     14.94919627      3.86335965
    C     14.66733178     10.17182144     13.77441649      4.00040808
    H     14.86952895     10.89411071     13.00815792      0.97246844
    C     15.43884680      7.10514871     15.47048389      4.11315131
    H     16.33649863      7.29305519     16.06024047      0.94536351
    H     15.71207705      6.44586279     14.64861979      0.93511816
    H     14.70129420      6.61679039     16.10354908      0.93413528
    N     15.41640738      9.03481034     13.90511331      5.18624603
    C      8.38092345      2.04483811      2.08561634      3.86322832
    C     10.20696999      2.22784322      3.20598990      4.00069308
    H     10.94203240      2.01123026      3.95632084      0.97293069
    C      7.07054560      1.53519153      1.60444408      4.11490290
    N      9.04078950      1.51845409      3.11993727      5.18957890
    C      2.02852671      8.59319335     14.91501653      3.86370543
    C      2.20953996      6.80303933     13.73962709      4.00045177
    H      1.97673292      6.07938204     12.98365994      0.97220259
    C      1.51573393      9.87753902     15.45828641      4.11157017
    N      1.46922703      7.94309944     13.89270652      5.18555417
    C      8.59258466     14.94407071      2.06892377      3.86355325
    C      6.81683220     14.76936810      3.26730133      4.00053639
    H      6.11213607     14.99709506      4.04200307      0.97130688
    C      9.87923449     15.44070746      1.51554071      4.11444529
    N      7.97079677     15.48800061      3.11688209      5.18455715
    C      2.08858885     14.92675790      8.64399767      3.86390754
    C      3.09810216     14.90500759      6.74681556      4.00136783
    H      3.78207320     15.20580228      5.97772615      0.97425233
    C      1.65469992     15.33573590     10.00516300      4.11374471
    N      3.05512358     15.53978812      7.95776183      5.18634797
    C     14.99447679     14.91458587      8.37996193      3.86355440
    C     14.83581942     13.82863787     10.22858078      4.00049258
    H     15.07456225     13.10584114     10.98381944      0.97247222
    C     15.49031979     15.37887902      7.05808276      4.11351943
    H     16.49320017     15.79315911      7.16069101      0.94503377
    H     15.54575540     14.54955195      6.35461976      0.93733872
    H     14.82872458     16.14672184      6.66354326      0.93245058
    N     15.54354457     13.90590620      9.06116436      5.18734339
    C     14.98420902      2.06708432      8.57524290      3.86334442
    C     13.78836870      2.25454963      6.79893145      4.00078004
    H     13.01948737      2.02787503      6.08683479      0.97308193
    C     15.53923326      1.54970211      9.85289518      4.11307411
    N     13.94519364      1.51914613      7.94196223      5.18873366
    C      2.06986119      2.12322808      8.36693275      3.86342651
    C      2.14883859      3.17766022     10.23820189      4.00052750
    H      1.88194013      3.89161105     10.99251265      0.97277889
    C      1.62463328      1.67357056      7.02253144      4.11332273
    H      0.74080127      1.04156273      7.11500401      0.94550810
    H      1.35995175      2.52776421      6.40255831      0.93447801
    H      2.41188149      1.09812176      6.54065462      0.93349953
    N      1.49372493      3.12172154      9.03939692      5.18528261
    C      3.10765305      2.21254921     10.24676466      4.00097700
    H      3.81040984      1.94577314     11.01137785      0.97415465
    N      3.05866422      1.54619301      9.05311654      5.18622269
    C      2.15821671     13.92143904      6.74514036      4.00112632
    H      1.88908759     13.22611357      5.97451986      0.97190751
    H      0.66181870     15.78378147      9.95994884      0.94423395
    H      1.59732825     14.47446700     10.66814253      0.93626035
    H      2.35155410     16.06432224     10.41342322      0.93275889
    N      1.52142744     13.93329401      7.95511834      5.18592961
    C     13.87415629     14.79084953     10.21024945      4.00139233
    H     13.13350939     15.04060968     10.94425634      0.97278456
    N     13.97530721     15.47792403      9.03137488      5.18776527
    C     14.73813436      3.22850802      6.78308672      4.00052161
    H     14.93287810      3.99029668      6.05427237      0.97155480
    H     16.43676565      0.96138349      9.65869150      0.94644640
    H     15.81505503      2.37229972     10.50994324      0.93467578
    H     14.80751470      0.91395830     10.34652634      0.93323790
    N     15.49460875      3.10968494      7.91611570      5.18576987
    C      6.81402867      3.12476024     14.75594602      4.00072237
    H      6.05899491      3.84982328     14.98913561      0.97408147
    H      9.87551027      1.22860984     16.47126430      0.94221670
    H     10.70262498      2.36784130     15.41747160      0.93745084
    H     10.33018466      0.73537748     14.82751870      0.93325046
    N      7.97303371      3.03850068     15.47712013      5.18860779
    C      6.78232019     13.80861973      2.30484715      4.00057798
    H      6.03792339     13.06420441      2.10038688      0.97358261
    H      9.71255124     15.90561895      0.54357358      0.94368388
    H     10.57791871     14.61789873      1.37304738      0.93631413
    H     10.31422313     16.17529751      2.18931841      0.93310986
    N      7.91487856     13.91937664      1.54570029      5.18945550
    C     13.71246104     10.16872046     14.74340823      4.00094798
    H     12.94557480     10.88631637     14.95904928      0.97201194
    N     13.85770106      9.02971702     15.48729699      5.18612631
    C     10.21050945      3.16509277      2.21983894      4.00096793
    H     10.95530400      3.89232076      1.96348358      0.97279552
    H      7.20367620      0.57072701      1.11361650      0.94324941
    H      6.63938413      2.23595891      0.89288486      0.93231363
    H      6.38556169      1.39189210      2.43835063      0.93627034
    N      9.04535748      3.05028715      1.51187346      5.18631223
    C      3.19813060      6.80541169     14.67437784      4.00063464
    H      3.97065189      6.08701567     14.86644394      0.97199225
    H      0.94012208      9.69471973     16.36638305      0.94886199
    H      2.33984099     10.54085908     15.71411440      0.93581567
    H      0.86808148     10.35874490     14.72880297      0.93249673
    N      3.08217096      7.94668459     15.41934891      5.18935789
    C     10.18895103     13.79527638     14.82032027      4.00081657
    H     10.93099698     13.07135630     15.09361394      0.97357613
    N      9.01189831     13.91202751     15.50769087      5.18519290
    C     13.80843018      6.79719044      2.20360335      4.00125607
    H     13.07204679      6.05643641      1.96128618      0.97167402
    N     13.87554687      7.98665416      1.53121502      5.18806913
    C      3.16336637     10.18288953      2.13272523      4.00088464
    H      3.90297663     10.91465570      1.87362845      0.97201410
    N      3.06072570      8.99830559      1.45602160      5.18680385
