Compiler and run-time data
===========================================================================
RASPA 2.0.35
Compiled as a 64-bits application
Compiler: gcc 8.3.0
Compile Date = Jan 22 2021, Compile Time = 12:22:36

Tue Sep 13 14:24:22 2022
Simulation started on Tuesday, September 13.
The start time was 02:24 PM.

Hostname:    The start time was 02:24 PM.
OS type:     The start time was 02:24 PM.
OS release:  The start time was 02:24 PM.
OS version:  The start time was 02:24 PM.

Simulation
===========================================================================
Dimensions: 3
Random number seed: 1663071861
RASPA directory set to: /home/salvador/RASPA/simulations
String appended to output-files: 
Number of cycles: 2500000
Number of initializing cycles: 0
Number of equilibration cycles: 0
Print every: 10
Triclinic boundary condition applied
Timestep: 0.000500
	Degrees of freedom:                        24
	Translational Degrees of freedom:          12
	Rotational Degrees of freedom:             12
	Degrees of freedom Framework:              0


Mutual consistent basic set of units:
======================================
Unit of temperature: Kelvin
Unit of length:      1e-10 [m]
Unit of time:        1e-12 [s]
Unit of mass:        1.66054e-27 [kg]
Unit of charge:      1.60218e-19 [C/particle]

Derived units and their conversion factors:
===========================================
Unit of energy:              1.66054e-23 [J]
Unit of force:               1.66054e-13 [N]
Unit of pressure:            1.66054e+07 [Pa]
Unit of velocity:            100 [m/s]
Unit of acceleration:        1e-08 [m^2/s]
Unit of diffusion:           1e-08 [m^2/s]
Unit of dipole moment:       1.60218e-29 [C.m]
Unit of electric potential:  0.000103643 [V]
Unit of electric field:      1.03643e+06 [V]
Unit of polarizability:      1.54587e-35 [-]
Unit of Coulomb potential:   167101.0800066561  [K]
Unit of dielectric constant: 0.0000154587       [s^2 C^2/(kg m^3)]
Unit of wave vectors:        5.3088374589       [cm^1]
Boltzmann constant:          0.8314464919       [-]

Internal conversion factors:
===========================================
Energy to Kelvin:                                    1.2027242847
FH correction factor                                 2.0211930949
Heat capacity conversion factor:                    10.0000088723
From Debye to internal units:                        4.8032067991
Isothermal compressibility conversion factor:        0.0000000602

Energy conversion factors:
===========================================
From mdyne/A to kcal/mol/A^2:           143.933
From mdyne/A to kj/mol/A^2:             602.214
From mdyne/A to K/A^2:                  72429.7
From mdyne A/rad^2 to kcal/mol/deg^2:   0.0438444


Properties computed
===========================================================================
Movies: no
Radial Distribution Function: no
Number of molecules GCMC histogram: no
Histogram of the molecule positions: no
Free energy profiles: no
Pore Size Distribution Function: no
End-to-end distance: no
Histogram of the energy of the system: no
Compute thermodynamic factors: no
Framework spacing histograms: no
Residence times histograms: no
Distance histograms: no
Bend Angle histograms: no
Dihedral angle histograms: no
Angle between planes histograms: no
Molecule properties: no
Infra-red spectra: no
Mean-squared displacement using modified order-N algorithm: no
Velocity-autocorrelation function modified order-N algorithm: no
Rotational velocity-autocorrelation function modified order-N algorithm: no
Molecular orientation-autocorrelation function modified order-N algorithm: no
Bond orientation-autocorrelation function modified order-N algorithm: no
Mean-squared displacement (conventional algorithm): no
Velocity-autocorrelation function (conventional algorithm): no
3D density grid for adsorbates: no
Compute cation an/or adsorption sites: no
dcTST snapshots: no
Compute pressure and stress: no


VTK
===========================================================================
VTK fractional-range position framework atoms: [-0.001000,1.001000] [-0.001000,1.001000] [-0.001000,1.001000]
VTK fractional-range position framework bonds: [-0.151000,1.151000] [-0.151000,1.151000] [-0.151000,1.151000]
VTK fractional-range com-position adsorbate molecules: [-0.101000,1.101000] [-0.101000,1.101000] [-0.101000,1.101000]
VTK fractional-range com-position cation molecules: [-0.101000,1.101000] [-0.101000,1.101000] [-0.101000,1.101000]
	3D free energy grid made for the full simulation-cell


Thermo/Baro-stat NHC parameters
===========================================================================
External temperature: 300 [K]
Beta: 0.00400908 [energy unit]
External Pressure: 0 [Pa]


Thermostat chain-length: 3
Timescale parameter for thermostat: 0.150000 [ps]
Barostat chain-length:   3
Timescale parameter for barostat:   0.150000 [ps]

Number of Yoshida-Suzuki decomposition steps: 5
Number of respa steps: 5


Method and settings for electrostatics
===============================================================================
Dielectric constant of the medium : 1.000000
Charge from charge-equilibration: no
Ewald summation is used (exact solution of a periodic system)
Relative precision                : 1e-06
Alpha convergence parameter       : 0.265058
kvec (x,y,z)                      : 5 5 5


CFC-RXMC parameters
===========================================================================
Number of reactions: 0


Rattle parameters
===========================================================================
Distance constraint type: r^2-r^2_0
Bend angle constraint type: theta-theta_0
Dihedral angle constraint type: phi-phi_0
Inversion-bend angle constraint type: chi-chi_0
Out-of-plane distance constraint type: r-r_0


Spectra parameters
===========================================================================
Compute normal modes: no


Minimization parameters
===========================================================================
Generalized coordinates are: Cartesian center-of-mass, elements of the orientational matrix p1,p2,p3 and strain
Potential derivatives are evaluated: analytically
Translation of the system is removed from the generalized Hessian: no
Rotation of the system is removed from the generalized Hessian: no
Maximum step-length: 0.3
Convergence factor: 1
Maximum number of minimization steps: 10000
Use gradients in the line-minimizations: yes
RMS gradient tolerance: 1e-06
Maximum gradient tolerance: 1e-06

Distance constraints: 0
Angle constraints: 0
Dihedral constraints: 0

Improper dihedral constraints: 0

Inversion-bend constraints: 0

Out-of-plane constraints: 0

Harmonic distance constraints: 0
Harmonic angle constraints: 0
Harmonic dihedral constraints: 0

Dihedral mid-point measurements: 0

All framework atoms are fixed

Fixed adsorbate atoms:  
Fixed adsorbate groups (center-of-mass):  
Fixed adsorbate groups (orientation):  

Fixed cation atoms:  
Fixed cation groups (center-of-mass):  
Fixed cation groups (orientation):  


dcTST parameters
===========================================================================
Free energy profiles computed: no
Free energy profiles written every 5000 cycles
Free energy mapping: mapped to a,b,c-coordinates
BarrierPosition:       0.0000000000       0.0000000000       0.0000000000
BarrierNormal:         0.0000000000       0.0000000000       0.0000000000
Start with a molecule on top of the barrier: no
Maximum distance to barrier (e.g. distance to minumum free energy):       0.0000000000 [A]
Maximum trajectory time:      10.0000000000 [ps]
Each configuration is used with 5 different initial velocities


Cbmc parameters
===========================================================================
Biasing method: using only the VDW part
Number of trial positions:                                       10
Number of trial positions (reinsertion):                         10
Number of trial positions (partial reinsertion):                 10
Number of trial positions (identity-change):                     10
Number of trial positions (Gibbs particle transfer):             10
Number of trial positions (insertion/deletion):                  10
Number of trial positions (Widom insertion):                     10
Number of trial positions coupled Torsion-selection:             100
Number of trial positions first bead:                            10
Number of trial positions first bead (reinsertion):              10
Number of trial positions first bead (partial reinsertion):      10
Number of trial positions first bead (identity-change):          10
Number of trial positions first bead (Gibbs particle transfer):  10
Number of trial positions first bead (insertion/deletion):       10
Number of trial positions first bead (Widom insertion):          10
Number of trial moves per open bead:                             150
Target acceptance ratio small-mc scheme:                         0.400000
Energy overlap criteria:                                         1e+07
Minimal Rosenbluth factor:                                       1e-150


Pseudo atoms: 26
===========================================================================
Pseudo Atom[   0] Name UNIT     Oxidation:          Element: H    pdb-name: H    Scat. Types:   1   1 Mass=1.000000000  B-factor:0.000   
                 Charge=1.000000000          Polarization=0.000000000  [A^3] (considered a charged atom and no polarization)  Interactions: yes
                 Anisotropic factor:    0.000 [-] (Absolute), Radius:    1.000 [A], Framework-atom:  no
Pseudo Atom[   1] Name C1       Oxidation: +0       Element: C    pdb-name: C    Scat. Types:   7   6 Mass=12.010700200 B-factor:1.000   
                 Charge=-0.035059000         Polarization=0.000000000  [A^3] (considered a charged atom and no polarization)  Interactions: yes
                 Anisotropic factor:    0.000 [-] (Absolute), Radius:    0.750 [A], Framework-atom:  no
Pseudo Atom[   2] Name C2       Oxidation: +0       Element: C    pdb-name: C    Scat. Types:   7   6 Mass=12.010700200 B-factor:1.000   
                 Charge=-0.042284500         Polarization=0.000000000  [A^3] (considered a charged atom and no polarization)  Interactions: yes
                 Anisotropic factor:    0.000 [-] (Absolute), Radius:    0.750 [A], Framework-atom:  no
Pseudo Atom[   3] Name C3       Oxidation: +0       Element: C    pdb-name: C    Scat. Types:   7   6 Mass=12.010700200 B-factor:1.000   
                 Charge=-0.038311200         Polarization=0.000000000  [A^3] (considered a charged atom and no polarization)  Interactions: yes
                 Anisotropic factor:    0.000 [-] (Absolute), Radius:    0.750 [A], Framework-atom:  no
Pseudo Atom[   4] Name C4       Oxidation: +0       Element: C    pdb-name: C    Scat. Types:   7   6 Mass=12.010700200 B-factor:1.000   
                 Charge=-0.054304100         Polarization=0.000000000  [A^3] (considered a charged atom and no polarization)  Interactions: yes
                 Anisotropic factor:    0.000 [-] (Absolute), Radius:    0.750 [A], Framework-atom:  no
Pseudo Atom[   5] Name C5       Oxidation: +0       Element: C    pdb-name: C    Scat. Types:   7   6 Mass=12.010700200 B-factor:1.000   
                 Charge=0.048094700          Polarization=0.000000000  [A^3] (considered a charged atom and no polarization)  Interactions: yes
                 Anisotropic factor:    0.000 [-] (Absolute), Radius:    0.750 [A], Framework-atom:  no
Pseudo Atom[   6] Name C6       Oxidation: +0       Element: C    pdb-name: C    Scat. Types:   7   6 Mass=12.010700200 B-factor:1.000   
                 Charge=-0.031524700         Polarization=0.000000000  [A^3] (considered a charged atom and no polarization)  Interactions: yes
                 Anisotropic factor:    0.000 [-] (Absolute), Radius:    0.750 [A], Framework-atom:  no
Pseudo Atom[   7] Name N7       Oxidation: +0       Element: N    pdb-name: N    Scat. Types:   8   7 Mass=14.007000000 B-factor:1.000   
                 Charge=-0.097492200         Polarization=0.000000000  [A^3] (considered a charged atom and no polarization)  Interactions: yes
                 Anisotropic factor:    0.000 [-] (Absolute), Radius:    0.710 [A], Framework-atom:  no
Pseudo Atom[   8] Name C8       Oxidation: +0       Element: C    pdb-name: C    Scat. Types:   7   6 Mass=12.010700200 B-factor:1.000   
                 Charge=-0.049244500         Polarization=0.000000000  [A^3] (considered a charged atom and no polarization)  Interactions: yes
                 Anisotropic factor:    0.000 [-] (Absolute), Radius:    0.750 [A], Framework-atom:  no
Pseudo Atom[   9] Name C9       Oxidation: +0       Element: C    pdb-name: C    Scat. Types:   7   6 Mass=12.010700200 B-factor:1.000   
                 Charge=0.085575900          Polarization=0.000000000  [A^3] (considered a charged atom and no polarization)  Interactions: yes
                 Anisotropic factor:    0.000 [-] (Absolute), Radius:    0.750 [A], Framework-atom:  no
Pseudo Atom[  10] Name H10      Oxidation: +0       Element: H    pdb-name: H    Scat. Types:   1   1 Mass=1.007940100  B-factor:1.000   
                 Charge=0.021949900          Polarization=0.000000000  [A^3] (considered a charged atom and no polarization)  Interactions: yes
                 Anisotropic factor:    0.000 [-] (Absolute), Radius:    0.310 [A], Framework-atom:  no
Pseudo Atom[  11] Name H11      Oxidation: +0       Element: H    pdb-name: H    Scat. Types:   1   1 Mass=1.007940100  B-factor:1.000   
                 Charge=0.051368000          Polarization=0.000000000  [A^3] (considered a charged atom and no polarization)  Interactions: yes
                 Anisotropic factor:    0.000 [-] (Absolute), Radius:    0.310 [A], Framework-atom:  no
Pseudo Atom[  12] Name H12      Oxidation: +0       Element: H    pdb-name: H    Scat. Types:   1   1 Mass=1.007940100  B-factor:1.000   
                 Charge=0.065986100          Polarization=0.000000000  [A^3] (considered a charged atom and no polarization)  Interactions: yes
                 Anisotropic factor:    0.000 [-] (Absolute), Radius:    0.310 [A], Framework-atom:  no
Pseudo Atom[  13] Name H13      Oxidation: +0       Element: H    pdb-name: H    Scat. Types:   1   1 Mass=1.007940100  B-factor:1.000   
                 Charge=0.079940900          Polarization=0.000000000  [A^3] (considered a charged atom and no polarization)  Interactions: yes
                 Anisotropic factor:    0.000 [-] (Absolute), Radius:    0.310 [A], Framework-atom:  no
Pseudo Atom[  14] Name H14      Oxidation: +0       Element: H    pdb-name: H    Scat. Types:   1   1 Mass=1.007940100  B-factor:1.000   
                 Charge=0.269597800          Polarization=0.000000000  [A^3] (considered a charged atom and no polarization)  Interactions: yes
                 Anisotropic factor:    0.000 [-] (Absolute), Radius:    0.310 [A], Framework-atom:  no
Pseudo Atom[  15] Name H15      Oxidation: +0       Element: H    pdb-name: H    Scat. Types:   1   1 Mass=1.007940100  B-factor:1.000   
                 Charge=0.091406400          Polarization=0.000000000  [A^3] (considered a charged atom and no polarization)  Interactions: yes
                 Anisotropic factor:    0.000 [-] (Absolute), Radius:    0.310 [A], Framework-atom:  no
Pseudo Atom[  16] Name O16      Oxidation: +0       Element: O    pdb-name: O    Scat. Types:   9   8 Mass=15.998999600 B-factor:1.000   
                 Charge=-0.490216100         Polarization=0.000000000  [A^3] (considered a charged atom and no polarization)  Interactions: yes
                 Anisotropic factor:    0.000 [-] (Absolute), Radius:    0.660 [A], Framework-atom:  no
Pseudo Atom[  17] Name S17      Oxidation: +0       Element: S    pdb-name: S    Scat. Types:  17  14 Mass=32.060001400 B-factor:1.000   
                 Charge=1.601390600          Polarization=0.000000000  [A^3] (considered a charged atom and no polarization)  Interactions: yes
                 Anisotropic factor:    0.000 [-] (Absolute), Radius:    1.050 [A], Framework-atom:  no
Pseudo Atom[  18] Name O18      Oxidation: +0       Element: O    pdb-name: O    Scat. Types:   9   8 Mass=15.998999600 B-factor:1.000   
                 Charge=-0.747335300         Polarization=0.000000000  [A^3] (considered a charged atom and no polarization)  Interactions: yes
                 Anisotropic factor:    0.000 [-] (Absolute), Radius:    0.660 [A], Framework-atom:  no
Pseudo Atom[  19] Name O19      Oxidation: +0       Element: O    pdb-name: O    Scat. Types:   9   8 Mass=15.998999600 B-factor:1.000   
                 Charge=-0.785516400         Polarization=0.000000000  [A^3] (considered a charged atom and no polarization)  Interactions: yes
                 Anisotropic factor:    0.000 [-] (Absolute), Radius:    0.660 [A], Framework-atom:  no
Pseudo Atom[  20] Name O20      Oxidation: +0       Element: O    pdb-name: O    Scat. Types:   9   8 Mass=15.998999600 B-factor:1.000   
                 Charge=-0.789997300         Polarization=0.000000000  [A^3] (considered a charged atom and no polarization)  Interactions: yes
                 Anisotropic factor:    0.000 [-] (Absolute), Radius:    0.660 [A], Framework-atom:  no
Pseudo Atom[  21] Name K21      Oxidation: +0       Element: K    pdb-name: K    Scat. Types:  20  19 Mass=39.098300900 B-factor:1.000   
                 Charge=0.845975100          Polarization=0.000000000  [A^3] (considered a charged atom and no polarization)  Interactions: yes
                 Anisotropic factor:    0.000 [-] (Absolute), Radius:    0.000 [A], Framework-atom:  no
Pseudo Atom[  22] Name C        Oxidation:          Element: C    pdb-name: C    Scat. Types:   7   6 Mass=12.010735897 B-factor:0.000   
                 Charge=0.000000000  (-na-)  Polarization=1.760000000  [A^3] (considered a chargeless atom and no polarization)  Interactions: yes
                 Anisotropic factor:    0.000 [-] (Absolute), Radius:    0.750 [A], Framework-atom: yes (charge definition not found)
Pseudo Atom[  23] Name H        Oxidation:          Element: H    pdb-name: H    Scat. Types:   1   1 Mass=1.007940754  B-factor:0.000   
                 Charge=0.000000000  (-na-)  Polarization=0.666793000  [A^3] (considered a chargeless atom and no polarization)  Interactions: yes
                 Anisotropic factor:    0.000 [-] (Absolute), Radius:    0.320 [A], Framework-atom: yes (charge definition not found)
Pseudo Atom[  24] Name N        Oxidation:          Element: N    pdb-name: N    Scat. Types:   8   7 Mass=14.006703212 B-factor:0.000   
                 Charge=0.000000000  (-na-)  Polarization=1.100000000  [A^3] (considered a chargeless atom and no polarization)  Interactions: yes
                 Anisotropic factor:    0.000 [-] (Absolute), Radius:    0.710 [A], Framework-atom: yes (charge definition not found)
Pseudo Atom[  25] Name Zn       Oxidation:          Element: Zn   pdb-name: Zn   Scat. Types:  31  30 Mass=65.408728088 B-factor:0.000   
                 Charge=0.000000000  (-na-)  Polarization=5.750000000  [A^3] (considered a chargeless atom and no polarization)  Interactions: yes
                 Anisotropic factor:    0.000 [-] (Absolute), Radius:    1.200 [A], Framework-atom: yes (charge definition not found)


Forcefield: Local
===========================================================================
Minimal distance: 1
CutOff VDW : 12.000000 (144.000000)
CutOff VDW switching on: 10.800000 (116.640000)
CutOff charge-charge : 12.000000 (144.000000)
CutOff charge-charge switching on: 7.800000 (60.840000)
CutOff charge-bonddipole : 12.000000 (144.000000)
CutOff charge-bondipole switching on: 8.400000 (70.560000)
CutOff bonddipole-bonddipole : 12.000000 (144.000000)
CutOff bonddipole-bondipole switching on: 9.000000 (81.000000)
Polarization is neglected
All potentials are shifted to zero at the Cutoff

General mixing rule: Lorentz-Berthelot mixing rules are used FIRST for cross terms
0 cross terms are overwritten using the individual mixing rules from the file 'force_field_mixing_rules.def'
and then 0 terms are overwritten using the specific interactions from the file 'force_field.def'

The force field and all the interactions:
     C1 -      C1 [LENNARD_JONES] p_0/k_B:  52.87336 [K], p_1: 3.43085 [A], shift/k_B:  -0.11544716 [K], tailcorrection: no
     C1 -      C2 [LENNARD_JONES] p_0/k_B:  52.87336 [K], p_1: 3.43085 [A], shift/k_B:  -0.11544716 [K], tailcorrection: no
     C1 -      C3 [LENNARD_JONES] p_0/k_B:  52.87336 [K], p_1: 3.43085 [A], shift/k_B:  -0.11544716 [K], tailcorrection: no
     C1 -      C4 [LENNARD_JONES] p_0/k_B:  52.87336 [K], p_1: 3.43085 [A], shift/k_B:  -0.11544716 [K], tailcorrection: no
     C1 -      C5 [LENNARD_JONES] p_0/k_B:  52.87336 [K], p_1: 3.43085 [A], shift/k_B:  -0.11544716 [K], tailcorrection: no
     C1 -      C6 [LENNARD_JONES] p_0/k_B:  52.87336 [K], p_1: 3.43085 [A], shift/k_B:  -0.11544716 [K], tailcorrection: no
     C1 -      N7 [LENNARD_JONES] p_0/k_B:  42.86144 [K], p_1: 3.34577 [A], shift/k_B:  -0.08050295 [K], tailcorrection: no
     C1 -      C8 [LENNARD_JONES] p_0/k_B:  52.87336 [K], p_1: 3.43085 [A], shift/k_B:  -0.11544716 [K], tailcorrection: no
     C1 -      C9 [LENNARD_JONES] p_0/k_B:  52.87336 [K], p_1: 3.43085 [A], shift/k_B:  -0.11544716 [K], tailcorrection: no
     C1 -     H10 [LENNARD_JONES] p_0/k_B:  34.22698 [K], p_1: 3.00099 [A], shift/k_B:  -0.03348298 [K], tailcorrection: no
     C1 -     H11 [LENNARD_JONES] p_0/k_B:  34.22698 [K], p_1: 3.00099 [A], shift/k_B:  -0.03348298 [K], tailcorrection: no
     C1 -     H12 [LENNARD_JONES] p_0/k_B:  34.22698 [K], p_1: 3.00099 [A], shift/k_B:  -0.03348298 [K], tailcorrection: no
     C1 -     H13 [LENNARD_JONES] p_0/k_B:  34.22698 [K], p_1: 3.00099 [A], shift/k_B:  -0.03348298 [K], tailcorrection: no
     C1 -     H14 [LENNARD_JONES] p_0/k_B:  34.22698 [K], p_1: 3.00099 [A], shift/k_B:  -0.03348298 [K], tailcorrection: no
     C1 -     H15 [LENNARD_JONES] p_0/k_B:  34.22698 [K], p_1: 3.00099 [A], shift/k_B:  -0.03348298 [K], tailcorrection: no
     C1 -     O16 [LENNARD_JONES] p_0/k_B:  39.96850 [K], p_1: 3.27450 [A], shift/k_B:  -0.06597503 [K], tailcorrection: no
     C1 -     S17 [LENNARD_JONES] p_0/k_B:  85.41173 [K], p_1: 3.51281 [A], shift/k_B:  -0.21485591 [K], tailcorrection: no
     C1 -     O18 [LENNARD_JONES] p_0/k_B:  39.96850 [K], p_1: 3.27450 [A], shift/k_B:  -0.06597503 [K], tailcorrection: no
     C1 -     O19 [LENNARD_JONES] p_0/k_B:  39.96850 [K], p_1: 3.27450 [A], shift/k_B:  -0.06597503 [K], tailcorrection: no
     C1 -     O20 [LENNARD_JONES] p_0/k_B:  39.96850 [K], p_1: 3.27450 [A], shift/k_B:  -0.06597503 [K], tailcorrection: no
     C1 -     K21 [LENNARD_JONES] p_0/k_B:  30.52645 [K], p_1: 3.41348 [A], shift/k_B:  -0.06465492 [K], tailcorrection: no
     C1 -       C [LENNARD_JONES] p_0/k_B:  52.87336 [K], p_1: 3.43085 [A], shift/k_B:  -0.11544716 [K], tailcorrection: no
     C1 -       H [LENNARD_JONES] p_0/k_B:  34.22698 [K], p_1: 3.00099 [A], shift/k_B:  -0.03348298 [K], tailcorrection: no
     C1 -       N [LENNARD_JONES] p_0/k_B:  42.86144 [K], p_1: 3.34577 [A], shift/k_B:  -0.08050295 [K], tailcorrection: no
     C1 -      Zn [LENNARD_JONES] p_0/k_B:  57.45834 [K], p_1: 2.94620 [A], shift/k_B:  -0.05032753 [K], tailcorrection: no
     C2 -      C2 [LENNARD_JONES] p_0/k_B:  52.87336 [K], p_1: 3.43085 [A], shift/k_B:  -0.11544716 [K], tailcorrection: no
     C2 -      C3 [LENNARD_JONES] p_0/k_B:  52.87336 [K], p_1: 3.43085 [A], shift/k_B:  -0.11544716 [K], tailcorrection: no
     C2 -      C4 [LENNARD_JONES] p_0/k_B:  52.87336 [K], p_1: 3.43085 [A], shift/k_B:  -0.11544716 [K], tailcorrection: no
     C2 -      C5 [LENNARD_JONES] p_0/k_B:  52.87336 [K], p_1: 3.43085 [A], shift/k_B:  -0.11544716 [K], tailcorrection: no
     C2 -      C6 [LENNARD_JONES] p_0/k_B:  52.87336 [K], p_1: 3.43085 [A], shift/k_B:  -0.11544716 [K], tailcorrection: no
     C2 -      N7 [LENNARD_JONES] p_0/k_B:  42.86144 [K], p_1: 3.34577 [A], shift/k_B:  -0.08050295 [K], tailcorrection: no
     C2 -      C8 [LENNARD_JONES] p_0/k_B:  52.87336 [K], p_1: 3.43085 [A], shift/k_B:  -0.11544716 [K], tailcorrection: no
     C2 -      C9 [LENNARD_JONES] p_0/k_B:  52.87336 [K], p_1: 3.43085 [A], shift/k_B:  -0.11544716 [K], tailcorrection: no
     C2 -     H10 [LENNARD_JONES] p_0/k_B:  34.22698 [K], p_1: 3.00099 [A], shift/k_B:  -0.03348298 [K], tailcorrection: no
     C2 -     H11 [LENNARD_JONES] p_0/k_B:  34.22698 [K], p_1: 3.00099 [A], shift/k_B:  -0.03348298 [K], tailcorrection: no
     C2 -     H12 [LENNARD_JONES] p_0/k_B:  34.22698 [K], p_1: 3.00099 [A], shift/k_B:  -0.03348298 [K], tailcorrection: no
     C2 -     H13 [LENNARD_JONES] p_0/k_B:  34.22698 [K], p_1: 3.00099 [A], shift/k_B:  -0.03348298 [K], tailcorrection: no
     C2 -     H14 [LENNARD_JONES] p_0/k_B:  34.22698 [K], p_1: 3.00099 [A], shift/k_B:  -0.03348298 [K], tailcorrection: no
     C2 -     H15 [LENNARD_JONES] p_0/k_B:  34.22698 [K], p_1: 3.00099 [A], shift/k_B:  -0.03348298 [K], tailcorrection: no
     C2 -     O16 [LENNARD_JONES] p_0/k_B:  39.96850 [K], p_1: 3.27450 [A], shift/k_B:  -0.06597503 [K], tailcorrection: no
     C2 -     S17 [LENNARD_JONES] p_0/k_B:  85.41173 [K], p_1: 3.51281 [A], shift/k_B:  -0.21485591 [K], tailcorrection: no
     C2 -     O18 [LENNARD_JONES] p_0/k_B:  39.96850 [K], p_1: 3.27450 [A], shift/k_B:  -0.06597503 [K], tailcorrection: no
     C2 -     O19 [LENNARD_JONES] p_0/k_B:  39.96850 [K], p_1: 3.27450 [A], shift/k_B:  -0.06597503 [K], tailcorrection: no
     C2 -     O20 [LENNARD_JONES] p_0/k_B:  39.96850 [K], p_1: 3.27450 [A], shift/k_B:  -0.06597503 [K], tailcorrection: no
     C2 -     K21 [LENNARD_JONES] p_0/k_B:  30.52645 [K], p_1: 3.41348 [A], shift/k_B:  -0.06465492 [K], tailcorrection: no
     C2 -       C [LENNARD_JONES] p_0/k_B:  52.87336 [K], p_1: 3.43085 [A], shift/k_B:  -0.11544716 [K], tailcorrection: no
     C2 -       H [LENNARD_JONES] p_0/k_B:  34.22698 [K], p_1: 3.00099 [A], shift/k_B:  -0.03348298 [K], tailcorrection: no
     C2 -       N [LENNARD_JONES] p_0/k_B:  42.86144 [K], p_1: 3.34577 [A], shift/k_B:  -0.08050295 [K], tailcorrection: no
     C2 -      Zn [LENNARD_JONES] p_0/k_B:  57.45834 [K], p_1: 2.94620 [A], shift/k_B:  -0.05032753 [K], tailcorrection: no
     C3 -      C3 [LENNARD_JONES] p_0/k_B:  52.87336 [K], p_1: 3.43085 [A], shift/k_B:  -0.11544716 [K], tailcorrection: no
     C3 -      C4 [LENNARD_JONES] p_0/k_B:  52.87336 [K], p_1: 3.43085 [A], shift/k_B:  -0.11544716 [K], tailcorrection: no
     C3 -      C5 [LENNARD_JONES] p_0/k_B:  52.87336 [K], p_1: 3.43085 [A], shift/k_B:  -0.11544716 [K], tailcorrection: no
     C3 -      C6 [LENNARD_JONES] p_0/k_B:  52.87336 [K], p_1: 3.43085 [A], shift/k_B:  -0.11544716 [K], tailcorrection: no
     C3 -      N7 [LENNARD_JONES] p_0/k_B:  42.86144 [K], p_1: 3.34577 [A], shift/k_B:  -0.08050295 [K], tailcorrection: no
     C3 -      C8 [LENNARD_JONES] p_0/k_B:  52.87336 [K], p_1: 3.43085 [A], shift/k_B:  -0.11544716 [K], tailcorrection: no
     C3 -      C9 [LENNARD_JONES] p_0/k_B:  52.87336 [K], p_1: 3.43085 [A], shift/k_B:  -0.11544716 [K], tailcorrection: no
     C3 -     H10 [LENNARD_JONES] p_0/k_B:  34.22698 [K], p_1: 3.00099 [A], shift/k_B:  -0.03348298 [K], tailcorrection: no
     C3 -     H11 [LENNARD_JONES] p_0/k_B:  34.22698 [K], p_1: 3.00099 [A], shift/k_B:  -0.03348298 [K], tailcorrection: no
     C3 -     H12 [LENNARD_JONES] p_0/k_B:  34.22698 [K], p_1: 3.00099 [A], shift/k_B:  -0.03348298 [K], tailcorrection: no
     C3 -     H13 [LENNARD_JONES] p_0/k_B:  34.22698 [K], p_1: 3.00099 [A], shift/k_B:  -0.03348298 [K], tailcorrection: no
     C3 -     H14 [LENNARD_JONES] p_0/k_B:  34.22698 [K], p_1: 3.00099 [A], shift/k_B:  -0.03348298 [K], tailcorrection: no
     C3 -     H15 [LENNARD_JONES] p_0/k_B:  34.22698 [K], p_1: 3.00099 [A], shift/k_B:  -0.03348298 [K], tailcorrection: no
     C3 -     O16 [LENNARD_JONES] p_0/k_B:  39.96850 [K], p_1: 3.27450 [A], shift/k_B:  -0.06597503 [K], tailcorrection: no
     C3 -     S17 [LENNARD_JONES] p_0/k_B:  85.41173 [K], p_1: 3.51281 [A], shift/k_B:  -0.21485591 [K], tailcorrection: no
     C3 -     O18 [LENNARD_JONES] p_0/k_B:  39.96850 [K], p_1: 3.27450 [A], shift/k_B:  -0.06597503 [K], tailcorrection: no
     C3 -     O19 [LENNARD_JONES] p_0/k_B:  39.96850 [K], p_1: 3.27450 [A], shift/k_B:  -0.06597503 [K], tailcorrection: no
     C3 -     O20 [LENNARD_JONES] p_0/k_B:  39.96850 [K], p_1: 3.27450 [A], shift/k_B:  -0.06597503 [K], tailcorrection: no
     C3 -     K21 [LENNARD_JONES] p_0/k_B:  30.52645 [K], p_1: 3.41348 [A], shift/k_B:  -0.06465492 [K], tailcorrection: no
     C3 -       C [LENNARD_JONES] p_0/k_B:  52.87336 [K], p_1: 3.43085 [A], shift/k_B:  -0.11544716 [K], tailcorrection: no
     C3 -       H [LENNARD_JONES] p_0/k_B:  34.22698 [K], p_1: 3.00099 [A], shift/k_B:  -0.03348298 [K], tailcorrection: no
     C3 -       N [LENNARD_JONES] p_0/k_B:  42.86144 [K], p_1: 3.34577 [A], shift/k_B:  -0.08050295 [K], tailcorrection: no
     C3 -      Zn [LENNARD_JONES] p_0/k_B:  57.45834 [K], p_1: 2.94620 [A], shift/k_B:  -0.05032753 [K], tailcorrection: no
     C4 -      C4 [LENNARD_JONES] p_0/k_B:  52.87336 [K], p_1: 3.43085 [A], shift/k_B:  -0.11544716 [K], tailcorrection: no
     C4 -      C5 [LENNARD_JONES] p_0/k_B:  52.87336 [K], p_1: 3.43085 [A], shift/k_B:  -0.11544716 [K], tailcorrection: no
     C4 -      C6 [LENNARD_JONES] p_0/k_B:  52.87336 [K], p_1: 3.43085 [A], shift/k_B:  -0.11544716 [K], tailcorrection: no
     C4 -      N7 [LENNARD_JONES] p_0/k_B:  42.86144 [K], p_1: 3.34577 [A], shift/k_B:  -0.08050295 [K], tailcorrection: no
     C4 -      C8 [LENNARD_JONES] p_0/k_B:  52.87336 [K], p_1: 3.43085 [A], shift/k_B:  -0.11544716 [K], tailcorrection: no
     C4 -      C9 [LENNARD_JONES] p_0/k_B:  52.87336 [K], p_1: 3.43085 [A], shift/k_B:  -0.11544716 [K], tailcorrection: no
     C4 -     H10 [LENNARD_JONES] p_0/k_B:  34.22698 [K], p_1: 3.00099 [A], shift/k_B:  -0.03348298 [K], tailcorrection: no
     C4 -     H11 [LENNARD_JONES] p_0/k_B:  34.22698 [K], p_1: 3.00099 [A], shift/k_B:  -0.03348298 [K], tailcorrection: no
     C4 -     H12 [LENNARD_JONES] p_0/k_B:  34.22698 [K], p_1: 3.00099 [A], shift/k_B:  -0.03348298 [K], tailcorrection: no
     C4 -     H13 [LENNARD_JONES] p_0/k_B:  34.22698 [K], p_1: 3.00099 [A], shift/k_B:  -0.03348298 [K], tailcorrection: no
     C4 -     H14 [LENNARD_JONES] p_0/k_B:  34.22698 [K], p_1: 3.00099 [A], shift/k_B:  -0.03348298 [K], tailcorrection: no
     C4 -     H15 [LENNARD_JONES] p_0/k_B:  34.22698 [K], p_1: 3.00099 [A], shift/k_B:  -0.03348298 [K], tailcorrection: no
     C4 -     O16 [LENNARD_JONES] p_0/k_B:  39.96850 [K], p_1: 3.27450 [A], shift/k_B:  -0.06597503 [K], tailcorrection: no
     C4 -     S17 [LENNARD_JONES] p_0/k_B:  85.41173 [K], p_1: 3.51281 [A], shift/k_B:  -0.21485591 [K], tailcorrection: no
     C4 -     O18 [LENNARD_JONES] p_0/k_B:  39.96850 [K], p_1: 3.27450 [A], shift/k_B:  -0.06597503 [K], tailcorrection: no
     C4 -     O19 [LENNARD_JONES] p_0/k_B:  39.96850 [K], p_1: 3.27450 [A], shift/k_B:  -0.06597503 [K], tailcorrection: no
     C4 -     O20 [LENNARD_JONES] p_0/k_B:  39.96850 [K], p_1: 3.27450 [A], shift/k_B:  -0.06597503 [K], tailcorrection: no
     C4 -     K21 [LENNARD_JONES] p_0/k_B:  30.52645 [K], p_1: 3.41348 [A], shift/k_B:  -0.06465492 [K], tailcorrection: no
     C4 -       C [LENNARD_JONES] p_0/k_B:  52.87336 [K], p_1: 3.43085 [A], shift/k_B:  -0.11544716 [K], tailcorrection: no
     C4 -       H [LENNARD_JONES] p_0/k_B:  34.22698 [K], p_1: 3.00099 [A], shift/k_B:  -0.03348298 [K], tailcorrection: no
     C4 -       N [LENNARD_JONES] p_0/k_B:  42.86144 [K], p_1: 3.34577 [A], shift/k_B:  -0.08050295 [K], tailcorrection: no
     C4 -      Zn [LENNARD_JONES] p_0/k_B:  57.45834 [K], p_1: 2.94620 [A], shift/k_B:  -0.05032753 [K], tailcorrection: no
     C5 -      C5 [LENNARD_JONES] p_0/k_B:  52.87336 [K], p_1: 3.43085 [A], shift/k_B:  -0.11544716 [K], tailcorrection: no
     C5 -      C6 [LENNARD_JONES] p_0/k_B:  52.87336 [K], p_1: 3.43085 [A], shift/k_B:  -0.11544716 [K], tailcorrection: no
     C5 -      N7 [LENNARD_JONES] p_0/k_B:  42.86144 [K], p_1: 3.34577 [A], shift/k_B:  -0.08050295 [K], tailcorrection: no
     C5 -      C8 [LENNARD_JONES] p_0/k_B:  52.87336 [K], p_1: 3.43085 [A], shift/k_B:  -0.11544716 [K], tailcorrection: no
     C5 -      C9 [LENNARD_JONES] p_0/k_B:  52.87336 [K], p_1: 3.43085 [A], shift/k_B:  -0.11544716 [K], tailcorrection: no
     C5 -     H10 [LENNARD_JONES] p_0/k_B:  34.22698 [K], p_1: 3.00099 [A], shift/k_B:  -0.03348298 [K], tailcorrection: no
     C5 -     H11 [LENNARD_JONES] p_0/k_B:  34.22698 [K], p_1: 3.00099 [A], shift/k_B:  -0.03348298 [K], tailcorrection: no
     C5 -     H12 [LENNARD_JONES] p_0/k_B:  34.22698 [K], p_1: 3.00099 [A], shift/k_B:  -0.03348298 [K], tailcorrection: no
     C5 -     H13 [LENNARD_JONES] p_0/k_B:  34.22698 [K], p_1: 3.00099 [A], shift/k_B:  -0.03348298 [K], tailcorrection: no
     C5 -     H14 [LENNARD_JONES] p_0/k_B:  34.22698 [K], p_1: 3.00099 [A], shift/k_B:  -0.03348298 [K], tailcorrection: no
     C5 -     H15 [LENNARD_JONES] p_0/k_B:  34.22698 [K], p_1: 3.00099 [A], shift/k_B:  -0.03348298 [K], tailcorrection: no
     C5 -     O16 [LENNARD_JONES] p_0/k_B:  39.96850 [K], p_1: 3.27450 [A], shift/k_B:  -0.06597503 [K], tailcorrection: no
     C5 -     S17 [LENNARD_JONES] p_0/k_B:  85.41173 [K], p_1: 3.51281 [A], shift/k_B:  -0.21485591 [K], tailcorrection: no
     C5 -     O18 [LENNARD_JONES] p_0/k_B:  39.96850 [K], p_1: 3.27450 [A], shift/k_B:  -0.06597503 [K], tailcorrection: no
     C5 -     O19 [LENNARD_JONES] p_0/k_B:  39.96850 [K], p_1: 3.27450 [A], shift/k_B:  -0.06597503 [K], tailcorrection: no
     C5 -     O20 [LENNARD_JONES] p_0/k_B:  39.96850 [K], p_1: 3.27450 [A], shift/k_B:  -0.06597503 [K], tailcorrection: no
     C5 -     K21 [LENNARD_JONES] p_0/k_B:  30.52645 [K], p_1: 3.41348 [A], shift/k_B:  -0.06465492 [K], tailcorrection: no
     C5 -       C [LENNARD_JONES] p_0/k_B:  52.87336 [K], p_1: 3.43085 [A], shift/k_B:  -0.11544716 [K], tailcorrection: no
     C5 -       H [LENNARD_JONES] p_0/k_B:  34.22698 [K], p_1: 3.00099 [A], shift/k_B:  -0.03348298 [K], tailcorrection: no
     C5 -       N [LENNARD_JONES] p_0/k_B:  42.86144 [K], p_1: 3.34577 [A], shift/k_B:  -0.08050295 [K], tailcorrection: no
     C5 -      Zn [LENNARD_JONES] p_0/k_B:  57.45834 [K], p_1: 2.94620 [A], shift/k_B:  -0.05032753 [K], tailcorrection: no
     C6 -      C6 [LENNARD_JONES] p_0/k_B:  52.87336 [K], p_1: 3.43085 [A], shift/k_B:  -0.11544716 [K], tailcorrection: no
     C6 -      N7 [LENNARD_JONES] p_0/k_B:  42.86144 [K], p_1: 3.34577 [A], shift/k_B:  -0.08050295 [K], tailcorrection: no
     C6 -      C8 [LENNARD_JONES] p_0/k_B:  52.87336 [K], p_1: 3.43085 [A], shift/k_B:  -0.11544716 [K], tailcorrection: no
     C6 -      C9 [LENNARD_JONES] p_0/k_B:  52.87336 [K], p_1: 3.43085 [A], shift/k_B:  -0.11544716 [K], tailcorrection: no
     C6 -     H10 [LENNARD_JONES] p_0/k_B:  34.22698 [K], p_1: 3.00099 [A], shift/k_B:  -0.03348298 [K], tailcorrection: no
     C6 -     H11 [LENNARD_JONES] p_0/k_B:  34.22698 [K], p_1: 3.00099 [A], shift/k_B:  -0.03348298 [K], tailcorrection: no
     C6 -     H12 [LENNARD_JONES] p_0/k_B:  34.22698 [K], p_1: 3.00099 [A], shift/k_B:  -0.03348298 [K], tailcorrection: no
     C6 -     H13 [LENNARD_JONES] p_0/k_B:  34.22698 [K], p_1: 3.00099 [A], shift/k_B:  -0.03348298 [K], tailcorrection: no
     C6 -     H14 [LENNARD_JONES] p_0/k_B:  34.22698 [K], p_1: 3.00099 [A], shift/k_B:  -0.03348298 [K], tailcorrection: no
     C6 -     H15 [LENNARD_JONES] p_0/k_B:  34.22698 [K], p_1: 3.00099 [A], shift/k_B:  -0.03348298 [K], tailcorrection: no
     C6 -     O16 [LENNARD_JONES] p_0/k_B:  39.96850 [K], p_1: 3.27450 [A], shift/k_B:  -0.06597503 [K], tailcorrection: no
     C6 -     S17 [LENNARD_JONES] p_0/k_B:  85.41173 [K], p_1: 3.51281 [A], shift/k_B:  -0.21485591 [K], tailcorrection: no
     C6 -     O18 [LENNARD_JONES] p_0/k_B:  39.96850 [K], p_1: 3.27450 [A], shift/k_B:  -0.06597503 [K], tailcorrection: no
     C6 -     O19 [LENNARD_JONES] p_0/k_B:  39.96850 [K], p_1: 3.27450 [A], shift/k_B:  -0.06597503 [K], tailcorrection: no
     C6 -     O20 [LENNARD_JONES] p_0/k_B:  39.96850 [K], p_1: 3.27450 [A], shift/k_B:  -0.06597503 [K], tailcorrection: no
     C6 -     K21 [LENNARD_JONES] p_0/k_B:  30.52645 [K], p_1: 3.41348 [A], shift/k_B:  -0.06465492 [K], tailcorrection: no
     C6 -       C [LENNARD_JONES] p_0/k_B:  52.87336 [K], p_1: 3.43085 [A], shift/k_B:  -0.11544716 [K], tailcorrection: no
     C6 -       H [LENNARD_JONES] p_0/k_B:  34.22698 [K], p_1: 3.00099 [A], shift/k_B:  -0.03348298 [K], tailcorrection: no
     C6 -       N [LENNARD_JONES] p_0/k_B:  42.86144 [K], p_1: 3.34577 [A], shift/k_B:  -0.08050295 [K], tailcorrection: no
     C6 -      Zn [LENNARD_JONES] p_0/k_B:  57.45834 [K], p_1: 2.94620 [A], shift/k_B:  -0.05032753 [K], tailcorrection: no
     N7 -      N7 [LENNARD_JONES] p_0/k_B:  34.74535 [K], p_1: 3.26069 [A], shift/k_B:  -0.05591790 [K], tailcorrection: no
     N7 -      C8 [LENNARD_JONES] p_0/k_B:  42.86144 [K], p_1: 3.34577 [A], shift/k_B:  -0.08050295 [K], tailcorrection: no
     N7 -      C9 [LENNARD_JONES] p_0/k_B:  42.86144 [K], p_1: 3.34577 [A], shift/k_B:  -0.08050295 [K], tailcorrection: no
     N7 -     H10 [LENNARD_JONES] p_0/k_B:  27.74588 [K], p_1: 2.91591 [A], shift/k_B:  -0.02284166 [K], tailcorrection: no
     N7 -     H11 [LENNARD_JONES] p_0/k_B:  27.74588 [K], p_1: 2.91591 [A], shift/k_B:  -0.02284166 [K], tailcorrection: no
     N7 -     H12 [LENNARD_JONES] p_0/k_B:  27.74588 [K], p_1: 2.91591 [A], shift/k_B:  -0.02284166 [K], tailcorrection: no
     N7 -     H13 [LENNARD_JONES] p_0/k_B:  27.74588 [K], p_1: 2.91591 [A], shift/k_B:  -0.02284166 [K], tailcorrection: no
     N7 -     H14 [LENNARD_JONES] p_0/k_B:  27.74588 [K], p_1: 2.91591 [A], shift/k_B:  -0.02284166 [K], tailcorrection: no
     N7 -     H15 [LENNARD_JONES] p_0/k_B:  27.74588 [K], p_1: 2.91591 [A], shift/k_B:  -0.02284166 [K], tailcorrection: no
     N7 -     O16 [LENNARD_JONES] p_0/k_B:  32.40020 [K], p_1: 3.18942 [A], shift/k_B:  -0.04567045 [K], tailcorrection: no
     N7 -     S17 [LENNARD_JONES] p_0/k_B:  69.23846 [K], p_1: 3.42773 [A], shift/k_B:  -0.15035772 [K], tailcorrection: no
     N7 -     O18 [LENNARD_JONES] p_0/k_B:  32.40020 [K], p_1: 3.18942 [A], shift/k_B:  -0.04567045 [K], tailcorrection: no
     N7 -     O19 [LENNARD_JONES] p_0/k_B:  32.40020 [K], p_1: 3.18942 [A], shift/k_B:  -0.04567045 [K], tailcorrection: no
     N7 -     O20 [LENNARD_JONES] p_0/k_B:  32.40020 [K], p_1: 3.18942 [A], shift/k_B:  -0.04567045 [K], tailcorrection: no
     N7 -     K21 [LENNARD_JONES] p_0/k_B:  24.74606 [K], p_1: 3.32840 [A], shift/k_B:  -0.04504972 [K], tailcorrection: no
     N7 -       C [LENNARD_JONES] p_0/k_B:  42.86144 [K], p_1: 3.34577 [A], shift/k_B:  -0.08050295 [K], tailcorrection: no
     N7 -       H [LENNARD_JONES] p_0/k_B:  27.74588 [K], p_1: 2.91591 [A], shift/k_B:  -0.02284166 [K], tailcorrection: no
     N7 -       N [LENNARD_JONES] p_0/k_B:  34.74535 [K], p_1: 3.26069 [A], shift/k_B:  -0.05591790 [K], tailcorrection: no
     N7 -      Zn [LENNARD_JONES] p_0/k_B:  46.57823 [K], p_1: 2.86112 [A], shift/k_B:  -0.03422104 [K], tailcorrection: no
     C8 -      C8 [LENNARD_JONES] p_0/k_B:  52.87336 [K], p_1: 3.43085 [A], shift/k_B:  -0.11544716 [K], tailcorrection: no
     C8 -      C9 [LENNARD_JONES] p_0/k_B:  52.87336 [K], p_1: 3.43085 [A], shift/k_B:  -0.11544716 [K], tailcorrection: no
     C8 -     H10 [LENNARD_JONES] p_0/k_B:  34.22698 [K], p_1: 3.00099 [A], shift/k_B:  -0.03348298 [K], tailcorrection: no
     C8 -     H11 [LENNARD_JONES] p_0/k_B:  34.22698 [K], p_1: 3.00099 [A], shift/k_B:  -0.03348298 [K], tailcorrection: no
     C8 -     H12 [LENNARD_JONES] p_0/k_B:  34.22698 [K], p_1: 3.00099 [A], shift/k_B:  -0.03348298 [K], tailcorrection: no
     C8 -     H13 [LENNARD_JONES] p_0/k_B:  34.22698 [K], p_1: 3.00099 [A], shift/k_B:  -0.03348298 [K], tailcorrection: no
     C8 -     H14 [LENNARD_JONES] p_0/k_B:  34.22698 [K], p_1: 3.00099 [A], shift/k_B:  -0.03348298 [K], tailcorrection: no
     C8 -     H15 [LENNARD_JONES] p_0/k_B:  34.22698 [K], p_1: 3.00099 [A], shift/k_B:  -0.03348298 [K], tailcorrection: no
     C8 -     O16 [LENNARD_JONES] p_0/k_B:  39.96850 [K], p_1: 3.27450 [A], shift/k_B:  -0.06597503 [K], tailcorrection: no
     C8 -     S17 [LENNARD_JONES] p_0/k_B:  85.41173 [K], p_1: 3.51281 [A], shift/k_B:  -0.21485591 [K], tailcorrection: no
     C8 -     O18 [LENNARD_JONES] p_0/k_B:  39.96850 [K], p_1: 3.27450 [A], shift/k_B:  -0.06597503 [K], tailcorrection: no
     C8 -     O19 [LENNARD_JONES] p_0/k_B:  39.96850 [K], p_1: 3.27450 [A], shift/k_B:  -0.06597503 [K], tailcorrection: no
     C8 -     O20 [LENNARD_JONES] p_0/k_B:  39.96850 [K], p_1: 3.27450 [A], shift/k_B:  -0.06597503 [K], tailcorrection: no
     C8 -     K21 [LENNARD_JONES] p_0/k_B:  30.52645 [K], p_1: 3.41348 [A], shift/k_B:  -0.06465492 [K], tailcorrection: no
     C8 -       C [LENNARD_JONES] p_0/k_B:  52.87336 [K], p_1: 3.43085 [A], shift/k_B:  -0.11544716 [K], tailcorrection: no
     C8 -       H [LENNARD_JONES] p_0/k_B:  34.22698 [K], p_1: 3.00099 [A], shift/k_B:  -0.03348298 [K], tailcorrection: no
     C8 -       N [LENNARD_JONES] p_0/k_B:  42.86144 [K], p_1: 3.34577 [A], shift/k_B:  -0.08050295 [K], tailcorrection: no
     C8 -      Zn [LENNARD_JONES] p_0/k_B:  57.45834 [K], p_1: 2.94620 [A], shift/k_B:  -0.05032753 [K], tailcorrection: no
     C9 -      C9 [LENNARD_JONES] p_0/k_B:  52.87336 [K], p_1: 3.43085 [A], shift/k_B:  -0.11544716 [K], tailcorrection: no
     C9 -     H10 [LENNARD_JONES] p_0/k_B:  34.22698 [K], p_1: 3.00099 [A], shift/k_B:  -0.03348298 [K], tailcorrection: no
     C9 -     H11 [LENNARD_JONES] p_0/k_B:  34.22698 [K], p_1: 3.00099 [A], shift/k_B:  -0.03348298 [K], tailcorrection: no
     C9 -     H12 [LENNARD_JONES] p_0/k_B:  34.22698 [K], p_1: 3.00099 [A], shift/k_B:  -0.03348298 [K], tailcorrection: no
     C9 -     H13 [LENNARD_JONES] p_0/k_B:  34.22698 [K], p_1: 3.00099 [A], shift/k_B:  -0.03348298 [K], tailcorrection: no
     C9 -     H14 [LENNARD_JONES] p_0/k_B:  34.22698 [K], p_1: 3.00099 [A], shift/k_B:  -0.03348298 [K], tailcorrection: no
     C9 -     H15 [LENNARD_JONES] p_0/k_B:  34.22698 [K], p_1: 3.00099 [A], shift/k_B:  -0.03348298 [K], tailcorrection: no
     C9 -     O16 [LENNARD_JONES] p_0/k_B:  39.96850 [K], p_1: 3.27450 [A], shift/k_B:  -0.06597503 [K], tailcorrection: no
     C9 -     S17 [LENNARD_JONES] p_0/k_B:  85.41173 [K], p_1: 3.51281 [A], shift/k_B:  -0.21485591 [K], tailcorrection: no
     C9 -     O18 [LENNARD_JONES] p_0/k_B:  39.96850 [K], p_1: 3.27450 [A], shift/k_B:  -0.06597503 [K], tailcorrection: no
     C9 -     O19 [LENNARD_JONES] p_0/k_B:  39.96850 [K], p_1: 3.27450 [A], shift/k_B:  -0.06597503 [K], tailcorrection: no
     C9 -     O20 [LENNARD_JONES] p_0/k_B:  39.96850 [K], p_1: 3.27450 [A], shift/k_B:  -0.06597503 [K], tailcorrection: no
     C9 -     K21 [LENNARD_JONES] p_0/k_B:  30.52645 [K], p_1: 3.41348 [A], shift/k_B:  -0.06465492 [K], tailcorrection: no
     C9 -       C [LENNARD_JONES] p_0/k_B:  52.87336 [K], p_1: 3.43085 [A], shift/k_B:  -0.11544716 [K], tailcorrection: no
     C9 -       H [LENNARD_JONES] p_0/k_B:  34.22698 [K], p_1: 3.00099 [A], shift/k_B:  -0.03348298 [K], tailcorrection: no
     C9 -       N [LENNARD_JONES] p_0/k_B:  42.86144 [K], p_1: 3.34577 [A], shift/k_B:  -0.08050295 [K], tailcorrection: no
     C9 -      Zn [LENNARD_JONES] p_0/k_B:  57.45834 [K], p_1: 2.94620 [A], shift/k_B:  -0.05032753 [K], tailcorrection: no
    H10 -     H10 [LENNARD_JONES] p_0/k_B:  22.15645 [K], p_1: 2.57113 [A], shift/k_B:  -0.00857391 [K], tailcorrection: no
    H10 -     H11 [LENNARD_JONES] p_0/k_B:  22.15645 [K], p_1: 2.57113 [A], shift/k_B:  -0.00857391 [K], tailcorrection: no
    H10 -     H12 [LENNARD_JONES] p_0/k_B:  22.15645 [K], p_1: 2.57113 [A], shift/k_B:  -0.00857391 [K], tailcorrection: no
    H10 -     H13 [LENNARD_JONES] p_0/k_B:  22.15645 [K], p_1: 2.57113 [A], shift/k_B:  -0.00857391 [K], tailcorrection: no
    H10 -     H14 [LENNARD_JONES] p_0/k_B:  22.15645 [K], p_1: 2.57113 [A], shift/k_B:  -0.00857391 [K], tailcorrection: no
    H10 -     H15 [LENNARD_JONES] p_0/k_B:  22.15645 [K], p_1: 2.57113 [A], shift/k_B:  -0.00857391 [K], tailcorrection: no
    H10 -     O16 [LENNARD_JONES] p_0/k_B:  25.87316 [K], p_1: 2.84464 [A], shift/k_B:  -0.01836151 [K], tailcorrection: no
    H10 -     S17 [LENNARD_JONES] p_0/k_B:  55.29033 [K], p_1: 3.08296 [A], shift/k_B:  -0.06357699 [K], tailcorrection: no
    H10 -     O18 [LENNARD_JONES] p_0/k_B:  25.87316 [K], p_1: 2.84464 [A], shift/k_B:  -0.01836151 [K], tailcorrection: no
    H10 -     O19 [LENNARD_JONES] p_0/k_B:  25.87316 [K], p_1: 2.84464 [A], shift/k_B:  -0.01836151 [K], tailcorrection: no
    H10 -     O20 [LENNARD_JONES] p_0/k_B:  25.87316 [K], p_1: 2.84464 [A], shift/k_B:  -0.01836151 [K], tailcorrection: no
    H10 -     K21 [LENNARD_JONES] p_0/k_B:  19.76096 [K], p_1: 2.98362 [A], shift/k_B:  -0.01866976 [K], tailcorrection: no
    H10 -       C [LENNARD_JONES] p_0/k_B:  34.22698 [K], p_1: 3.00099 [A], shift/k_B:  -0.03348298 [K], tailcorrection: no
    H10 -       H [LENNARD_JONES] p_0/k_B:  22.15645 [K], p_1: 2.57113 [A], shift/k_B:  -0.00857391 [K], tailcorrection: no
    H10 -       N [LENNARD_JONES] p_0/k_B:  27.74588 [K], p_1: 2.91591 [A], shift/k_B:  -0.02284166 [K], tailcorrection: no
    H10 -      Zn [LENNARD_JONES] p_0/k_B:  37.19502 [K], p_1: 2.51634 [A], shift/k_B:  -0.01264852 [K], tailcorrection: no
    H11 -     H11 [LENNARD_JONES] p_0/k_B:  22.15645 [K], p_1: 2.57113 [A], shift/k_B:  -0.00857391 [K], tailcorrection: no
    H11 -     H12 [LENNARD_JONES] p_0/k_B:  22.15645 [K], p_1: 2.57113 [A], shift/k_B:  -0.00857391 [K], tailcorrection: no
    H11 -     H13 [LENNARD_JONES] p_0/k_B:  22.15645 [K], p_1: 2.57113 [A], shift/k_B:  -0.00857391 [K], tailcorrection: no
    H11 -     H14 [LENNARD_JONES] p_0/k_B:  22.15645 [K], p_1: 2.57113 [A], shift/k_B:  -0.00857391 [K], tailcorrection: no
    H11 -     H15 [LENNARD_JONES] p_0/k_B:  22.15645 [K], p_1: 2.57113 [A], shift/k_B:  -0.00857391 [K], tailcorrection: no
    H11 -     O16 [LENNARD_JONES] p_0/k_B:  25.87316 [K], p_1: 2.84464 [A], shift/k_B:  -0.01836151 [K], tailcorrection: no
    H11 -     S17 [LENNARD_JONES] p_0/k_B:  55.29033 [K], p_1: 3.08296 [A], shift/k_B:  -0.06357699 [K], tailcorrection: no
    H11 -     O18 [LENNARD_JONES] p_0/k_B:  25.87316 [K], p_1: 2.84464 [A], shift/k_B:  -0.01836151 [K], tailcorrection: no
    H11 -     O19 [LENNARD_JONES] p_0/k_B:  25.87316 [K], p_1: 2.84464 [A], shift/k_B:  -0.01836151 [K], tailcorrection: no
    H11 -     O20 [LENNARD_JONES] p_0/k_B:  25.87316 [K], p_1: 2.84464 [A], shift/k_B:  -0.01836151 [K], tailcorrection: no
    H11 -     K21 [LENNARD_JONES] p_0/k_B:  19.76096 [K], p_1: 2.98362 [A], shift/k_B:  -0.01866976 [K], tailcorrection: no
    H11 -       C [LENNARD_JONES] p_0/k_B:  34.22698 [K], p_1: 3.00099 [A], shift/k_B:  -0.03348298 [K], tailcorrection: no
    H11 -       H [LENNARD_JONES] p_0/k_B:  22.15645 [K], p_1: 2.57113 [A], shift/k_B:  -0.00857391 [K], tailcorrection: no
    H11 -       N [LENNARD_JONES] p_0/k_B:  27.74588 [K], p_1: 2.91591 [A], shift/k_B:  -0.02284166 [K], tailcorrection: no
    H11 -      Zn [LENNARD_JONES] p_0/k_B:  37.19502 [K], p_1: 2.51634 [A], shift/k_B:  -0.01264852 [K], tailcorrection: no
    H12 -     H12 [LENNARD_JONES] p_0/k_B:  22.15645 [K], p_1: 2.57113 [A], shift/k_B:  -0.00857391 [K], tailcorrection: no
    H12 -     H13 [LENNARD_JONES] p_0/k_B:  22.15645 [K], p_1: 2.57113 [A], shift/k_B:  -0.00857391 [K], tailcorrection: no
    H12 -     H14 [LENNARD_JONES] p_0/k_B:  22.15645 [K], p_1: 2.57113 [A], shift/k_B:  -0.00857391 [K], tailcorrection: no
    H12 -     H15 [LENNARD_JONES] p_0/k_B:  22.15645 [K], p_1: 2.57113 [A], shift/k_B:  -0.00857391 [K], tailcorrection: no
    H12 -     O16 [LENNARD_JONES] p_0/k_B:  25.87316 [K], p_1: 2.84464 [A], shift/k_B:  -0.01836151 [K], tailcorrection: no
    H12 -     S17 [LENNARD_JONES] p_0/k_B:  55.29033 [K], p_1: 3.08296 [A], shift/k_B:  -0.06357699 [K], tailcorrection: no
    H12 -     O18 [LENNARD_JONES] p_0/k_B:  25.87316 [K], p_1: 2.84464 [A], shift/k_B:  -0.01836151 [K], tailcorrection: no
    H12 -     O19 [LENNARD_JONES] p_0/k_B:  25.87316 [K], p_1: 2.84464 [A], shift/k_B:  -0.01836151 [K], tailcorrection: no
    H12 -     O20 [LENNARD_JONES] p_0/k_B:  25.87316 [K], p_1: 2.84464 [A], shift/k_B:  -0.01836151 [K], tailcorrection: no
    H12 -     K21 [LENNARD_JONES] p_0/k_B:  19.76096 [K], p_1: 2.98362 [A], shift/k_B:  -0.01866976 [K], tailcorrection: no
    H12 -       C [LENNARD_JONES] p_0/k_B:  34.22698 [K], p_1: 3.00099 [A], shift/k_B:  -0.03348298 [K], tailcorrection: no
    H12 -       H [LENNARD_JONES] p_0/k_B:  22.15645 [K], p_1: 2.57113 [A], shift/k_B:  -0.00857391 [K], tailcorrection: no
    H12 -       N [LENNARD_JONES] p_0/k_B:  27.74588 [K], p_1: 2.91591 [A], shift/k_B:  -0.02284166 [K], tailcorrection: no
    H12 -      Zn [LENNARD_JONES] p_0/k_B:  37.19502 [K], p_1: 2.51634 [A], shift/k_B:  -0.01264852 [K], tailcorrection: no
    H13 -     H13 [LENNARD_JONES] p_0/k_B:  22.15645 [K], p_1: 2.57113 [A], shift/k_B:  -0.00857391 [K], tailcorrection: no
    H13 -     H14 [LENNARD_JONES] p_0/k_B:  22.15645 [K], p_1: 2.57113 [A], shift/k_B:  -0.00857391 [K], tailcorrection: no
    H13 -     H15 [LENNARD_JONES] p_0/k_B:  22.15645 [K], p_1: 2.57113 [A], shift/k_B:  -0.00857391 [K], tailcorrection: no
    H13 -     O16 [LENNARD_JONES] p_0/k_B:  25.87316 [K], p_1: 2.84464 [A], shift/k_B:  -0.01836151 [K], tailcorrection: no
    H13 -     S17 [LENNARD_JONES] p_0/k_B:  55.29033 [K], p_1: 3.08296 [A], shift/k_B:  -0.06357699 [K], tailcorrection: no
    H13 -     O18 [LENNARD_JONES] p_0/k_B:  25.87316 [K], p_1: 2.84464 [A], shift/k_B:  -0.01836151 [K], tailcorrection: no
    H13 -     O19 [LENNARD_JONES] p_0/k_B:  25.87316 [K], p_1: 2.84464 [A], shift/k_B:  -0.01836151 [K], tailcorrection: no
    H13 -     O20 [LENNARD_JONES] p_0/k_B:  25.87316 [K], p_1: 2.84464 [A], shift/k_B:  -0.01836151 [K], tailcorrection: no
    H13 -     K21 [LENNARD_JONES] p_0/k_B:  19.76096 [K], p_1: 2.98362 [A], shift/k_B:  -0.01866976 [K], tailcorrection: no
    H13 -       C [LENNARD_JONES] p_0/k_B:  34.22698 [K], p_1: 3.00099 [A], shift/k_B:  -0.03348298 [K], tailcorrection: no
    H13 -       H [LENNARD_JONES] p_0/k_B:  22.15645 [K], p_1: 2.57113 [A], shift/k_B:  -0.00857391 [K], tailcorrection: no
    H13 -       N [LENNARD_JONES] p_0/k_B:  27.74588 [K], p_1: 2.91591 [A], shift/k_B:  -0.02284166 [K], tailcorrection: no
    H13 -      Zn [LENNARD_JONES] p_0/k_B:  37.19502 [K], p_1: 2.51634 [A], shift/k_B:  -0.01264852 [K], tailcorrection: no
    H14 -     H14 [LENNARD_JONES] p_0/k_B:  22.15645 [K], p_1: 2.57113 [A], shift/k_B:  -0.00857391 [K], tailcorrection: no
    H14 -     H15 [LENNARD_JONES] p_0/k_B:  22.15645 [K], p_1: 2.57113 [A], shift/k_B:  -0.00857391 [K], tailcorrection: no
    H14 -     O16 [LENNARD_JONES] p_0/k_B:  25.87316 [K], p_1: 2.84464 [A], shift/k_B:  -0.01836151 [K], tailcorrection: no
    H14 -     S17 [LENNARD_JONES] p_0/k_B:  55.29033 [K], p_1: 3.08296 [A], shift/k_B:  -0.06357699 [K], tailcorrection: no
    H14 -     O18 [LENNARD_JONES] p_0/k_B:  25.87316 [K], p_1: 2.84464 [A], shift/k_B:  -0.01836151 [K], tailcorrection: no
    H14 -     O19 [LENNARD_JONES] p_0/k_B:  25.87316 [K], p_1: 2.84464 [A], shift/k_B:  -0.01836151 [K], tailcorrection: no
    H14 -     O20 [LENNARD_JONES] p_0/k_B:  25.87316 [K], p_1: 2.84464 [A], shift/k_B:  -0.01836151 [K], tailcorrection: no
    H14 -     K21 [LENNARD_JONES] p_0/k_B:  19.76096 [K], p_1: 2.98362 [A], shift/k_B:  -0.01866976 [K], tailcorrection: no
    H14 -       C [LENNARD_JONES] p_0/k_B:  34.22698 [K], p_1: 3.00099 [A], shift/k_B:  -0.03348298 [K], tailcorrection: no
    H14 -       H [LENNARD_JONES] p_0/k_B:  22.15645 [K], p_1: 2.57113 [A], shift/k_B:  -0.00857391 [K], tailcorrection: no
    H14 -       N [LENNARD_JONES] p_0/k_B:  27.74588 [K], p_1: 2.91591 [A], shift/k_B:  -0.02284166 [K], tailcorrection: no
    H14 -      Zn [LENNARD_JONES] p_0/k_B:  37.19502 [K], p_1: 2.51634 [A], shift/k_B:  -0.01264852 [K], tailcorrection: no
    H15 -     H15 [LENNARD_JONES] p_0/k_B:  22.15645 [K], p_1: 2.57113 [A], shift/k_B:  -0.00857391 [K], tailcorrection: no
    H15 -     O16 [LENNARD_JONES] p_0/k_B:  25.87316 [K], p_1: 2.84464 [A], shift/k_B:  -0.01836151 [K], tailcorrection: no
    H15 -     S17 [LENNARD_JONES] p_0/k_B:  55.29033 [K], p_1: 3.08296 [A], shift/k_B:  -0.06357699 [K], tailcorrection: no
    H15 -     O18 [LENNARD_JONES] p_0/k_B:  25.87316 [K], p_1: 2.84464 [A], shift/k_B:  -0.01836151 [K], tailcorrection: no
    H15 -     O19 [LENNARD_JONES] p_0/k_B:  25.87316 [K], p_1: 2.84464 [A], shift/k_B:  -0.01836151 [K], tailcorrection: no
    H15 -     O20 [LENNARD_JONES] p_0/k_B:  25.87316 [K], p_1: 2.84464 [A], shift/k_B:  -0.01836151 [K], tailcorrection: no
    H15 -     K21 [LENNARD_JONES] p_0/k_B:  19.76096 [K], p_1: 2.98362 [A], shift/k_B:  -0.01866976 [K], tailcorrection: no
    H15 -       C [LENNARD_JONES] p_0/k_B:  34.22698 [K], p_1: 3.00099 [A], shift/k_B:  -0.03348298 [K], tailcorrection: no
    H15 -       H [LENNARD_JONES] p_0/k_B:  22.15645 [K], p_1: 2.57113 [A], shift/k_B:  -0.00857391 [K], tailcorrection: no
    H15 -       N [LENNARD_JONES] p_0/k_B:  27.74588 [K], p_1: 2.91591 [A], shift/k_B:  -0.02284166 [K], tailcorrection: no
    H15 -      Zn [LENNARD_JONES] p_0/k_B:  37.19502 [K], p_1: 2.51634 [A], shift/k_B:  -0.01264852 [K], tailcorrection: no
    O16 -     O16 [LENNARD_JONES] p_0/k_B:  30.21335 [K], p_1: 3.11815 [A], shift/k_B:  -0.03718912 [K], tailcorrection: no
    O16 -     S17 [LENNARD_JONES] p_0/k_B:  64.56520 [K], p_1: 3.35646 [A], shift/k_B:  -0.12360970 [K], tailcorrection: no
    O16 -     O18 [LENNARD_JONES] p_0/k_B:  30.21335 [K], p_1: 3.11815 [A], shift/k_B:  -0.03718912 [K], tailcorrection: no
    O16 -     O19 [LENNARD_JONES] p_0/k_B:  30.21335 [K], p_1: 3.11815 [A], shift/k_B:  -0.03718912 [K], tailcorrection: no
    O16 -     O20 [LENNARD_JONES] p_0/k_B:  30.21335 [K], p_1: 3.11815 [A], shift/k_B:  -0.03718912 [K], tailcorrection: no
    O16 -     K21 [LENNARD_JONES] p_0/k_B:  23.07582 [K], p_1: 3.25713 [A], shift/k_B:  -0.03689463 [K], tailcorrection: no
    O16 -       C [LENNARD_JONES] p_0/k_B:  39.96850 [K], p_1: 3.27450 [A], shift/k_B:  -0.06597503 [K], tailcorrection: no
    O16 -       H [LENNARD_JONES] p_0/k_B:  25.87316 [K], p_1: 2.84464 [A], shift/k_B:  -0.01836151 [K], tailcorrection: no
    O16 -       N [LENNARD_JONES] p_0/k_B:  32.40020 [K], p_1: 3.18942 [A], shift/k_B:  -0.04567045 [K], tailcorrection: no
    O16 -      Zn [LENNARD_JONES] p_0/k_B:  43.43442 [K], p_1: 2.78985 [A], shift/k_B:  -0.02742979 [K], tailcorrection: no
    S17 -     S17 [LENNARD_JONES] p_0/k_B: 137.97428 [K], p_1: 3.59478 [A], shift/k_B:  -0.39855469 [K], tailcorrection: no
    S17 -     O18 [LENNARD_JONES] p_0/k_B:  64.56520 [K], p_1: 3.35646 [A], shift/k_B:  -0.12360970 [K], tailcorrection: no
    S17 -     O19 [LENNARD_JONES] p_0/k_B:  64.56520 [K], p_1: 3.35646 [A], shift/k_B:  -0.12360970 [K], tailcorrection: no
    S17 -     O20 [LENNARD_JONES] p_0/k_B:  64.56520 [K], p_1: 3.35646 [A], shift/k_B:  -0.12360970 [K], tailcorrection: no
    S17 -     K21 [LENNARD_JONES] p_0/k_B:  49.31248 [K], p_1: 3.49544 [A], shift/k_B:  -0.12041372 [K], tailcorrection: no
    S17 -       C [LENNARD_JONES] p_0/k_B:  85.41173 [K], p_1: 3.51281 [A], shift/k_B:  -0.21485591 [K], tailcorrection: no
    S17 -       H [LENNARD_JONES] p_0/k_B:  55.29033 [K], p_1: 3.08296 [A], shift/k_B:  -0.06357699 [K], tailcorrection: no
    S17 -       N [LENNARD_JONES] p_0/k_B:  69.23846 [K], p_1: 3.42773 [A], shift/k_B:  -0.15035772 [K], tailcorrection: no
    S17 -      Zn [LENNARD_JONES] p_0/k_B:  92.81832 [K], p_1: 3.02816 [A], shift/k_B:  -0.09584535 [K], tailcorrection: no
    O18 -     O18 [LENNARD_JONES] p_0/k_B:  30.21335 [K], p_1: 3.11815 [A], shift/k_B:  -0.03718912 [K], tailcorrection: no
    O18 -     O19 [LENNARD_JONES] p_0/k_B:  30.21335 [K], p_1: 3.11815 [A], shift/k_B:  -0.03718912 [K], tailcorrection: no
    O18 -     O20 [LENNARD_JONES] p_0/k_B:  30.21335 [K], p_1: 3.11815 [A], shift/k_B:  -0.03718912 [K], tailcorrection: no
    O18 -     K21 [LENNARD_JONES] p_0/k_B:  23.07582 [K], p_1: 3.25713 [A], shift/k_B:  -0.03689463 [K], tailcorrection: no
    O18 -       C [LENNARD_JONES] p_0/k_B:  39.96850 [K], p_1: 3.27450 [A], shift/k_B:  -0.06597503 [K], tailcorrection: no
    O18 -       H [LENNARD_JONES] p_0/k_B:  25.87316 [K], p_1: 2.84464 [A], shift/k_B:  -0.01836151 [K], tailcorrection: no
    O18 -       N [LENNARD_JONES] p_0/k_B:  32.40020 [K], p_1: 3.18942 [A], shift/k_B:  -0.04567045 [K], tailcorrection: no
    O18 -      Zn [LENNARD_JONES] p_0/k_B:  43.43442 [K], p_1: 2.78985 [A], shift/k_B:  -0.02742979 [K], tailcorrection: no
    O19 -     O19 [LENNARD_JONES] p_0/k_B:  30.21335 [K], p_1: 3.11815 [A], shift/k_B:  -0.03718912 [K], tailcorrection: no
    O19 -     O20 [LENNARD_JONES] p_0/k_B:  30.21335 [K], p_1: 3.11815 [A], shift/k_B:  -0.03718912 [K], tailcorrection: no
    O19 -     K21 [LENNARD_JONES] p_0/k_B:  23.07582 [K], p_1: 3.25713 [A], shift/k_B:  -0.03689463 [K], tailcorrection: no
    O19 -       C [LENNARD_JONES] p_0/k_B:  39.96850 [K], p_1: 3.27450 [A], shift/k_B:  -0.06597503 [K], tailcorrection: no
    O19 -       H [LENNARD_JONES] p_0/k_B:  25.87316 [K], p_1: 2.84464 [A], shift/k_B:  -0.01836151 [K], tailcorrection: no
    O19 -       N [LENNARD_JONES] p_0/k_B:  32.40020 [K], p_1: 3.18942 [A], shift/k_B:  -0.04567045 [K], tailcorrection: no
    O19 -      Zn [LENNARD_JONES] p_0/k_B:  43.43442 [K], p_1: 2.78985 [A], shift/k_B:  -0.02742979 [K], tailcorrection: no
    O20 -     O20 [LENNARD_JONES] p_0/k_B:  30.21335 [K], p_1: 3.11815 [A], shift/k_B:  -0.03718912 [K], tailcorrection: no
    O20 -     K21 [LENNARD_JONES] p_0/k_B:  23.07582 [K], p_1: 3.25713 [A], shift/k_B:  -0.03689463 [K], tailcorrection: no
    O20 -       C [LENNARD_JONES] p_0/k_B:  39.96850 [K], p_1: 3.27450 [A], shift/k_B:  -0.06597503 [K], tailcorrection: no
    O20 -       H [LENNARD_JONES] p_0/k_B:  25.87316 [K], p_1: 2.84464 [A], shift/k_B:  -0.01836151 [K], tailcorrection: no
    O20 -       N [LENNARD_JONES] p_0/k_B:  32.40020 [K], p_1: 3.18942 [A], shift/k_B:  -0.04567045 [K], tailcorrection: no
    O20 -      Zn [LENNARD_JONES] p_0/k_B:  43.43442 [K], p_1: 2.78985 [A], shift/k_B:  -0.02742979 [K], tailcorrection: no
    K21 -     K21 [LENNARD_JONES] p_0/k_B:  17.62445 [K], p_1: 3.39611 [A], shift/k_B:  -0.03620364 [K], tailcorrection: no
    K21 -       C [LENNARD_JONES] p_0/k_B:  30.52645 [K], p_1: 3.41348 [A], shift/k_B:  -0.06465492 [K], tailcorrection: no
    K21 -       H [LENNARD_JONES] p_0/k_B:  19.76096 [K], p_1: 2.98362 [A], shift/k_B:  -0.01866976 [K], tailcorrection: no
    K21 -       N [LENNARD_JONES] p_0/k_B:  24.74606 [K], p_1: 3.32840 [A], shift/k_B:  -0.04504972 [K], tailcorrection: no
    K21 -      Zn [LENNARD_JONES] p_0/k_B:  33.17359 [K], p_1: 2.92883 [A], shift/k_B:  -0.02804386 [K], tailcorrection: no
      C -       C [LENNARD_JONES] p_0/k_B:  52.87336 [K], p_1: 3.43085 [A], shift/k_B:  -0.11544716 [K], tailcorrection: no
      C -       H [LENNARD_JONES] p_0/k_B:  34.22698 [K], p_1: 3.00099 [A], shift/k_B:  -0.03348298 [K], tailcorrection: no
      C -       N [LENNARD_JONES] p_0/k_B:  42.86144 [K], p_1: 3.34577 [A], shift/k_B:  -0.08050295 [K], tailcorrection: no
      C -      Zn [LENNARD_JONES] p_0/k_B:  57.45834 [K], p_1: 2.94620 [A], shift/k_B:  -0.05032753 [K], tailcorrection: no
      H -       H [LENNARD_JONES] p_0/k_B:  22.15645 [K], p_1: 2.57113 [A], shift/k_B:  -0.00857391 [K], tailcorrection: no
      H -       N [LENNARD_JONES] p_0/k_B:  27.74588 [K], p_1: 2.91591 [A], shift/k_B:  -0.02284166 [K], tailcorrection: no
      H -      Zn [LENNARD_JONES] p_0/k_B:  37.19502 [K], p_1: 2.51634 [A], shift/k_B:  -0.01264852 [K], tailcorrection: no
      N -       N [LENNARD_JONES] p_0/k_B:  34.74535 [K], p_1: 3.26069 [A], shift/k_B:  -0.05591790 [K], tailcorrection: no
      N -      Zn [LENNARD_JONES] p_0/k_B:  46.57823 [K], p_1: 2.86112 [A], shift/k_B:  -0.03422104 [K], tailcorrection: no
     Zn -      Zn [LENNARD_JONES] p_0/k_B:  62.44092 [K], p_1: 2.46155 [A], shift/k_B:  -0.01860650 [K], tailcorrection: no


MoleculeDefinitions:
===========================================================================
Component 0 [isk_all_0] (Adsorbate molecule)

	MoleculeDefinitions: Local
	Component contains (at least some) atoms which are charged
	Component contains no atoms with point dipoles (polarization)
	Component has a net charge of 0.000000

	Ideal chain Rosenbluth weight: 1
	Ideal chain total energy: 0.000000

	Critical temparure [K]: 0.000000
	Critical pressure [Pa]: 0.000000
	Acentric factor [-]: 1.000000

	RXMC partition factor [-]: 0.000000

	Vapour=stable, Liquid=metastable

	MolFraction:           1.0000000000 [-]
	Compressibility:       0.0000000000 [-]

	Density of the bulk fluid phase:       0.0000000000 [kg/m^3]


	Amount of excess molecules:       0.0000000000 [-]

	Conversion factor molecules/unit cell -> mol/kg:       0.3661380816 [-]
	Conversion factor molecules/unit cell -> gr/gr:      92.0085018523 [-]
	Conversion factor molecules/unit cell -> cm^3 STP/gr:       8.2066100811 [-]
	Conversion factor molecules/unit cell -> cm^3 STP/cm^3:       7.5877163362 [-]
	Conversion factor mol/kg -> cm^3 STP/gr:      22.4139757476 [-]
	Conversion factor mol/kg -> cm^3 STP/cm^3:      20.7236469454 [-]

	Partial pressure: -16605402.00000000000000 [Pa]
	                    -124540.51499999999942 [Torr]
	                       -166.05402000000001 [bar]
	                       -163.88257586972614 [atm]

	Fugacity coefficient:      -1.0000000000 [-]

	Partial fugacity:  16605402.00000000000000 [Pa]
	                     124540.51499999999942 [Torr]
	                        166.05402000000001 [bar]
	                        163.88257586972614 [atm]

	Molecule contains 21 number of atoms
		atom:    0  is of type:    1 [        C1] (group: 0)
		atom:    1  is of type:    2 [        C2] (group: 0)
		atom:    2  is of type:    3 [        C3] (group: 0)
		atom:    3  is of type:    4 [        C4] (group: 0)
		atom:    4  is of type:    5 [        C5] (group: 0)
		atom:    5  is of type:    6 [        C6] (group: 0)
		atom:    6  is of type:    7 [        N7] (group: 0)
		atom:    7  is of type:    8 [        C8] (group: 0)
		atom:    8  is of type:    9 [        C9] (group: 0)
		atom:    9  is of type:   10 [       H10] (group: 0)
		atom:   10  is of type:   11 [       H11] (group: 0)
		atom:   11  is of type:   12 [       H12] (group: 0)
		atom:   12  is of type:   13 [       H13] (group: 0)
		atom:   13  is of type:   14 [       H14] (group: 0)
		atom:   14  is of type:   15 [       H15] (group: 0)
		atom:   15  is of type:   16 [       O16] (group: 0)
		atom:   16  is of type:   17 [       S17] (group: 0)
		atom:   17  is of type:   18 [       O18] (group: 0)
		atom:   18  is of type:   19 [       O19] (group: 0)
		atom:   19  is of type:   20 [       O20] (group: 0)
		atom:   20  is of type:   21 [       K21] (group: 0)

	Molecule contains 0 chirality centers

	Molecule contains 1 number of groups

		group: 0 containing: 21 elements
		-------------------------------------------------
		the group is rigid and nonlinear
		Mass: 251.294543 [a.u.]
		Mass: 85.069796 [kg/m^3]

		Rotational Degrees of freedom: 3
		Diagonalized inertia vector:    2173.3543296851
		                                1815.8341808624
		                                 446.6776945700
		number of atoms: 21
			element: 0 atom: 0 [        C1] Charge: -0.035059 Anisotropy: 0.000000 Position: -0.004966 -1.409343  2.876342 Connectivity: 3 (1 5 9 )
			element: 1 atom: 1 [        C2] Charge: -0.042285 Anisotropy: 0.000000 Position: -0.010479 -1.180808  4.232891 Connectivity: 3 (0 2 10 )
			element: 2 atom: 2 [        C3] Charge: -0.038311 Anisotropy: 0.000000 Position: -0.009032  0.119014  4.753540 Connectivity: 3 (1 3 11 )
			element: 3 atom: 3 [        C4] Charge: -0.054304 Anisotropy: 0.000000 Position: -0.002116  1.224025  3.932253 Connectivity: 3 (2 4 12 )
			element: 4 atom: 4 [        C5] Charge:  0.048095 Anisotropy: 0.000000 Position:  0.003605  1.007654  2.556863 Connectivity: 3 (3 5 6 )
			element: 5 atom: 5 [        C6] Charge: -0.031525 Anisotropy: 0.000000 Position:  0.002210 -0.305640  2.020422 Connectivity: 3 (0 4 8 )
			element: 6 atom: 6 [        N7] Charge: -0.097492 Anisotropy: 0.000000 Position:  0.011211  1.890202  1.518281 Connectivity: 3 (4 7 13 )
			element: 7 atom: 7 [        C8] Charge: -0.049244 Anisotropy: 0.000000 Position:  0.015276  1.191306  0.338293 Connectivity: 3 (6 8 14 )
			element: 8 atom: 8 [        C9] Charge:  0.085576 Anisotropy: 0.000000 Position:  0.009857 -0.149510  0.598502 Connectivity: 3 (5 7 15 )
			element: 9 atom: 9 [       H10] Charge:  0.021950 Anisotropy: 0.000000 Position: -0.005891 -2.406423  2.463560 Connectivity: 1 (0 )
			element: 10 atom: 10 [       H11] Charge:  0.051368 Anisotropy: 0.000000 Position: -0.015932 -2.018067  4.913288 Connectivity: 1 (1 )
			element: 11 atom: 11 [       H12] Charge:  0.065986 Anisotropy: 0.000000 Position: -0.013398  0.250488  5.824023 Connectivity: 1 (2 )
			element: 12 atom: 12 [       H13] Charge:  0.079941 Anisotropy: 0.000000 Position: -0.001019  2.222388  4.337851 Connectivity: 1 (3 )
			element: 13 atom: 13 [       H14] Charge:  0.269598 Anisotropy: 0.000000 Position:  0.014705  2.896485  1.595439 Connectivity: 1 (6 )
			element: 14 atom: 14 [       H15] Charge:  0.091406 Anisotropy: 0.000000 Position:  0.023368  1.683055 -0.622340 Connectivity: 1 (7 )
			element: 15 atom: 15 [       O16] Charge: -0.490216 Anisotropy: 0.000000 Position:  0.011427 -1.227908 -0.280732 Connectivity: 2 (8 16 )
			element: 16 atom: 16 [       S17] Charge:  1.601391 Anisotropy: 0.000000 Position:  0.001695 -0.998314 -1.847186 Connectivity: 4 (15 17 18 19 )
			element: 17 atom: 17 [       O18] Charge: -0.747335 Anisotropy: 0.000000 Position:  0.000470 -2.322732 -2.405412 Connectivity: 1 (16 )
			element: 18 atom: 18 [       O19] Charge: -0.785516 Anisotropy: 0.000000 Position:  1.178558 -0.200409 -2.195010 Connectivity: 1 (16 )
			element: 19 atom: 19 [       O20] Charge: -0.789997 Anisotropy: 0.000000 Position: -1.181666 -0.203898 -2.180624 Connectivity: 1 (16 )
			element: 20 atom: 20 [       K21] Charge:  0.845975 Anisotropy: 0.000000 Position: -0.010388  1.539469 -3.162810 Connectivity: 0 ()
		number of permanent dipoles: 0
		number of polarizabilities: 0

		Dipole:          15.3323194874 [D]
		Quadrupole:     -26.2343246299     -24.7130200452      50.9473446751 [D Angstrom]
		Quadrupole tensor [D Angstrom]
				     -26.2297236447      -0.0013888608       0.1452898098
				      -0.0013888608      -0.0429094321     -35.4704902939
				       0.1452898098     -35.4704902939      26.2726330768

	Starting bead for growth               : 0

	Degrees of freedom                     : 0
	Translational degrees of freedom       : 0
	Rotational degrees of freedom          : 0
	Vibrational degrees of freedom         : 0
	Constraint degrees of freedom          : 0

	Number of atoms                        : 21

	Number of constraint bonds             : 0
	Number of constraint bends             : 0
	Number of constraint inversion bends   : 0
	Number of constraint torsions          : 0
	Number of constraint improper torsions : 0
	Number of constraint improper torsions : 0

	Number of bonds                        : 21
	Number of Urey-Bradleys                : 0
	Number of bends                        : 0
	Number of inversion bends              : 0
	Number of torsions                     : 0
	Number of improper torsions            : 0
	Number of improper torsions            : 0

	Number of bond/bond cross terms        : 0
	Number of bond/bend cross terms        : 0
	Number of bend/bend cross terms        : 0
	Number of stretch/torsion cross terms  : 0
	Number of bend/torsion cross terms     : 0

	Number of charges                      : 21
	Number of bond-dipoles                 : 0

	Number of intra Van der Waals                             : 0
	Number of intra charge-charge Coulomb                     : 0
	Number of intra charge-bonddipole Coulomb                 : 0
	Number of intra bonddipole-bonddipole Coulomb             : 0

	Number of excluded intra charge-charge Coulomb                     : 210
	Number of excluded intra charge-bonddipole Coulomb                 : 0
	Number of excluded intra bonddipole-bonddipole Coulomb             : 0

	Number of cbmc-config moves                               : 0

	Particle Moves:             
		ProbabilityTranslationMove:                  33.333333
			TranslationDirection:      XYZ
		Percentage of random translation moves:            0.000000
		Percentage of rotation moves:                      33.333333
		Percentage of random rotation moves:               0.000000
		Percentage of partial reinsertion moves:           0.000000
		Percentage of reinsertion moves:                   33.333333
		Percentage of reinsertion-in-place moves:          0.000000
		Percentage of reinsertion-in-plane moves:          0.000000
		Percentage of identity-change moves:               0.000000
		Percentage of swap (insert/delete) moves:          0.000000
		Percentage of CF swap lambda moves:                0.000000
		Percentage of CB/CFMC swap lambda moves:           0.000000
		Percentage of Widom insertion moves:               0.000000
		Percentage of CF-Widom insertion moves:            0.000000
		Percentage of Gibbs Widom insertion moves:         0.000000
		Percentage of surface-area moves:                  0.000000
		Percentage of Gibbs particle-transfer moves:       0.000000
		Percentage of Gibbs identity-change moves:         0.000000
		Percentage of CF Gibbs lambda-transfer moves:      0.000000
		Percentage of CB/CFMC Gibbs lambda-transfer moves: 0.000000
		Percentage of exchange frac./int. particle moves:  0.000000
		Percentage of fractional mol. to other box moves:  0.000000
		Percentage of lambda-change moves:                 0.000000
		Percentage of fractional to integer moves:         0.000000

	System Moves:
		Percentage of parallel-tempering moves:            0.000000
		Percentage of hyper-parallel-tempering moves:      0.000000
		Percentage of parallel-mol-fraction moves:         0.000000
			   Component A: 0 B: 1
		Percentage of chiral inversion moves:              0.000000
		Percentage of Hybrid-NVE moves:                    0.000000
		Percentage of Hybrid-NPH moves:                    0.000000
		Percentage of Hybrid-NPHPR moves:                  0.000000
		Percentage of volume-change moves:                 0.000000
		Percentage of box-shape-change moves:              0.000000
		Percentage of Gibbs volume-change moves:           0.000000
		Percentage of framework-change moves:              0.000000
		Percentage of framework-shift moves:               0.000000
		Percentage of reactive MC moves:                   0.000000

	Moves are restricted: No
	No biased sampling used for this component

	Number of Bonds: 21
	--------------------------------------------
	Bond interaction 0: A=0 B=1 Type:RIGID_BOND
		r_0=1.3756764758       [A]
	Bond interaction 1: A=0 B=5 Type:RIGID_BOND
		r_0=1.3967132048       [A]
	Bond interaction 2: A=0 B=9 Type:RIGID_BOND
		r_0=1.0791469510       [A]
	Bond interaction 3: A=1 B=2 Type:RIGID_BOND
		r_0=1.4002186489       [A]
	Bond interaction 4: A=1 B=10 Type:RIGID_BOND
		r_0=1.0788757549       [A]
	Bond interaction 5: A=2 B=3 Type:RIGID_BOND
		r_0=1.3768110771       [A]
	Bond interaction 6: A=2 B=11 Type:RIGID_BOND
		r_0=1.0785358295       [A]
	Bond interaction 7: A=3 B=4 Type:RIGID_BOND
		r_0=1.3923175213       [A]
	Bond interaction 8: A=3 B=12 Type:RIGID_BOND
		r_0=1.0776088835       [A]
	Bond interaction 9: A=4 B=5 Type:RIGID_BOND
		r_0=1.4186308422       [A]
	Bond interaction 10: A=4 B=6 Type:RIGID_BOND
		r_0=1.3629383210       [A]
	Bond interaction 11: A=5 B=8 Type:RIGID_BOND
		r_0=1.4304871303       [A]
	Bond interaction 12: A=6 B=7 Type:RIGID_BOND
		r_0=1.3714380914       [A]
	Bond interaction 13: A=6 B=13 Type:RIGID_BOND
		r_0=1.0092426318       [A]
	Bond interaction 14: A=7 B=8 Type:RIGID_BOND
		r_0=1.3658422217       [A]
	Bond interaction 15: A=7 B=14 Type:RIGID_BOND
		r_0=1.0792119893       [A]
	Bond interaction 16: A=8 B=15 Type:RIGID_BOND
		r_0=1.3914011763       [A]
	Bond interaction 17: A=15 B=16 Type:RIGID_BOND
		r_0=1.5832206448       [A]
	Bond interaction 18: A=16 B=17 Type:RIGID_BOND
		r_0=1.4372540312       [A]
	Bond interaction 19: A=16 B=18 Type:RIGID_BOND
		r_0=1.4637761923       [A]
	Bond interaction 20: A=16 B=19 Type:RIGID_BOND
		r_0=1.4637691831       [A]


	number of identity-config changes: 1
	--------------------------------------------
	nr fixed 1: 0 

	Number of pockets blocked in a unitcell: 0
		Pockets are NOT blocked for this component



Framework Status
===========================================================================
Lowenstein's rule obeyed by framework
	Framework is modelled as: rigid

	Number of charges:                               0
	Number of bonddipoles:                           0


System Properties
===========================================================================
Unit cell size: 16.991000 16.991000 16.991000
Cell angles (radians)  alpha: 1.570796 beta: 1.570796 gamma: 1.570796
Cell angles (degrees)  alpha: 90.000000 beta: 90.000000 gamma: 90.000000
Number of unitcells [a]: 1
Number of unitcells [b]: 1
Number of unitcells [c]: 1

TRICLINIC Boundary conditions: alpha!=90 or beta!=90 or gamma!=90

Cartesian axis A is collinear with crystallographic axis a
Cartesian axis B is collinear with (axb)xA
Cartesian axis C is collinear with (axb)

lengths of cell vectors:
 16.99100  16.99100  16.99100
cosines of cell angles:
  0.00000   0.00000   0.00000
perpendicular cell widths:
 16.99100  16.99100  16.99100
volume of the cell:  4905.201130271000 (A^3)

Orthogonalization matrix Box
Transforms fractional coordinates abc into orthonormal Cartesian coordinates xyz
Deorthogonalization matrix InverseBox
Transforms orthonormal Cartesian coordinates xyz into fractional coordinates xyz

Box[0]:
	   16.991000000000     0.000000000000     0.000000000000
	    0.000000000000    16.991000000000     0.000000000000
	    0.000000000000     0.000000000000    16.991000000000

Inverse box[0]:
	    0.058854687776    -0.000000000000    -0.000000000000
	    0.000000000000     0.058854687776    -0.000000000000
	    0.000000000000     0.000000000000     0.058854687776


Unitcell box[0]:
	   16.991000000000     0.000000000000     0.000000000000
	    0.000000000000    16.991000000000     0.000000000000
	    0.000000000000     0.000000000000    16.991000000000

Unitcell inverse box[0]:
	    0.058854687776    -0.000000000000    -0.000000000000
	    0.000000000000     0.058854687776    -0.000000000000
	    0.000000000000     0.000000000000     0.058854687776

lengths of cell vectors (inverse box):
  0.05885   0.05885   0.05885
cosines of cell angles (inverse box):
 -0.00000  -0.00000  -0.00000
perpendicular cell widths (inverse):
  0.05885   0.05885   0.05885
volume of the cell:  4905.201130271000 (A^3)

Number of Replica Cells: 2 2 2
Replica Box:
	   33.982000000000     0.000000000000     0.000000000000
	    0.000000000000    33.982000000000     0.000000000000
	    0.000000000000     0.000000000000    33.982000000000

Shift of the Replica cells:
	[cell:  0]     0.000000000000     0.000000000000     0.000000000000
	[cell:  1]     0.000000000000     0.000000000000    16.991000000000
	[cell:  2]     0.000000000000    16.991000000000     0.000000000000
	[cell:  3]     0.000000000000    16.991000000000    16.991000000000
	[cell:  4]    16.991000000000     0.000000000000     0.000000000000
	[cell:  5]    16.991000000000     0.000000000000    16.991000000000
	[cell:  6]    16.991000000000    16.991000000000     0.000000000000
	[cell:  7]    16.991000000000    16.991000000000    16.991000000000

Framework is simulated as 'rigid'
Number of framework atoms: 276
Number of framework atoms in the unit cell: 276
Framework Mass:  2731.210027779643 [g/mol]
Framework Density:   924.585944894932 [kg/m^3]    1.0815652190275 [cm^3/g]
Helium void fraction:    0.00000000
Available pore volume:    0.00000000 [A^3]    0.00000000 [cm^3/g]
Conversion factor from molecule/unit cell -> kmol/m^3: 0.338526, kmol/m^3 accesible pore volume: inf

Number Of Frameworks (per system): 1
----------------------------------------------------------------------
Framework name: ZIF-8_p1
Space group: 1
	Identifier: 1
	short international Hermann-Mauguin symbol: P 1
	long international Hermann-Mauguin symbol: P 1
	Hall symbol: P 1
	Number of lattice translations: 1 [ (0,0,0) ]
	acentric/centric: acentric
	chiral: no
	enantiomorphic: no
	number of operators: 1
		'x,y,z'
Framework is simulated as 'rigid'
Shift: 0.000000 0.000000 0.000000
Number of framework atoms: 276
Number of asymmetric atoms: 276
Number of free framework atoms: 0
Number of fixed framework atoms: 276
Number of framework atoms in the unit cell: 276
Framework Mass:  2731.210027779643 [g/mol]
Framework Density:   924.585944894932 [kg/m^3]
Framework has net charge: 0.000000
         largest charge : 0.000000
         smallest charge: 0.000000

Using FULL Host-guest interaction calculation (for testing purposes)

Current Atom Status
===========================================================================
Number of framework atoms        : 276
Number of cations molecules      : 0
Number of adsorbate molecules    : 4
Component    0 :    4 molecules
Pseudo Atoms    0 [    UNIT]:    0 atoms
Pseudo Atoms    1 [      C1]:    4 atoms
Pseudo Atoms    2 [      C2]:    4 atoms
Pseudo Atoms    3 [      C3]:    4 atoms
Pseudo Atoms    4 [      C4]:    4 atoms
Pseudo Atoms    5 [      C5]:    4 atoms
Pseudo Atoms    6 [      C6]:    4 atoms
Pseudo Atoms    7 [      N7]:    4 atoms
Pseudo Atoms    8 [      C8]:    4 atoms
Pseudo Atoms    9 [      C9]:    4 atoms
Pseudo Atoms   10 [     H10]:    4 atoms
Pseudo Atoms   11 [     H11]:    4 atoms
Pseudo Atoms   12 [     H12]:    4 atoms
Pseudo Atoms   13 [     H13]:    4 atoms
Pseudo Atoms   14 [     H14]:    4 atoms
Pseudo Atoms   15 [     H15]:    4 atoms
Pseudo Atoms   16 [     O16]:    4 atoms
Pseudo Atoms   17 [     S17]:    4 atoms
Pseudo Atoms   18 [     O18]:    4 atoms
Pseudo Atoms   19 [     O19]:    4 atoms
Pseudo Atoms   20 [     O20]:    4 atoms
Pseudo Atoms   21 [     K21]:    4 atoms
Pseudo Atoms   22 [       C]:   96 atoms
Pseudo Atoms   23 [       H]:  120 atoms
Pseudo Atoms   24 [       N]:   48 atoms
Pseudo Atoms   25 [      Zn]:   12 atoms


Current (initial full energy) Energy Status
===========================================================================

Internal energy:
Host stretch energy:                                            0.00000000
Host UreyBradley energy:                                        0.00000000
Host bend energy:                                               0.00000000
Host inversion-bend energy:                                     0.00000000
Host torsion energy:                                            0.00000000
Host improper torsion energy:                                   0.00000000
Host out-of-plane energy:                                       0.00000000
Host stretch/stretch energy:                                    0.00000000
Host bend/bend energy:                                          0.00000000
Host stretch/bend energy:                                       0.00000000
[...]
Volume: 4905.20113 [A^3] Average Volume: 4905.20113 [A^3]

Loadings per component:
----------------------------------------------------------------------------------------------------------------------------------------------------
Component 0 (isk_all_0), current number of integer/fractional/reaction molecules: 4/0/0 (avg.   4.00000), density: 340.27937 (avg. 340.27937) [kg/m^3]
	absolute adsorption:   4.00000 (avg.   4.00000) [mol/uc],   1.4645523264 (avg.   1.4645523264) [mol/kg], 368.0340074092 (avg. 368.0340074092) [mg/g]
	                      32.8264403244 (avg.  32.8264403244) [cm^3 STP/g],   30.3508653449 (avg.  30.3508653449) [cm^3 STP/cm^3]
	excess adsorption:     4.0000000000 (avg.   4.0000000000) [mol/uc],   1.4645523264 (avg.   1.4645523264) [mol/kg], 368.0340074092 (avg. 368.0340074092) [mg/g]
	                      32.8264403244 (avg.  32.8264403244) [cm^3 STP/g],   30.3508653449 (avg.  30.3508653449) [cm^3 STP/cm^3]
----------------------------------------------------------------------------------------------------------------------------------------------------
Degrees of freedom: 24 0 24 0
Number of Framework-atoms:    276
Number of Adsorbates:           4 (4 integer, 0 fractional, 0 reaction)
Number of Cations:              0 (0 integer, 0 fractional, 0 reaction)

Current total potential energy:            -78580.6047936429 [K]  (avg.      -76379.9671029032)
	Current Host-Host energy:                     0.0000000000 [K]  (avg.           0.0000000000)
	Current Host-Adsorbate energy:           -33131.9956968897 [K]  (avg.      -31686.2971039617)
	Current Host-Cation energy:                   0.0000000000 [K]  (avg.           0.0000000000)
	Current Adsorbate-Adsorbate energy:      -45448.6090967529 [K]  (avg.      -44693.6699989415)
	Current Cation-Cation energy:                 0.0000000000 [K]  (avg.           0.0000000000)
	Current Adsorbate-Cation energy:              0.0000000000 [K]  (avg.           0.0000000000)



Average Properties at Current cycle: 1130 out of 2500000
========================================================================================

Framework surface area:       0.0000000000 [m^2/g]        0.0000000000 [m^2/cm^3]       0.0000000000 [A^2]
	Framework 0 individual surface area:       0.0000000000 [m^2/g]        0.0000000000 [m^2/cm^3]       0.0000000000 [A^2]
	Cation surface area:                       0.0000000000 [m^2/g]        0.0000000000 [m^2/cm^3]       0.0000000000 [A^2]
Isothermal expansion coefficient:      -0.0000000058 [10^6 K^-1]
Isothermal compressibility coefficient:      -0.0000000022 [10^12 Pa^-1]
Heat of vaporization:    9590.8855076788 [J/mole/K]
Compressibility:       0.0000000000 [-]
Heat capacity Cp:    2485.0625666382 [J/mole/K]
Heat capacity Cp (ConstantPressure):    2485.0625666382 [J/mole/K]
Henry coefficients
	Component 0: 0 [mol/kg/Pa] (Rosenbluth factor new: 0 [-])
Energy <U_gh>_1-<U_h>_0 from Widom


Current cycle: 1130 out of 2500000
========================================================================================================

Net charge: 4e-07 (F: 0, A: 4e-07, C: 0)
Current Box:  16.99100   0.00000   0.00000 [A]   Average Box:  16.99100   0.00000   0.00000 [A]
               0.00000  16.99100   0.00000 [A]                  0.00000  16.99100   0.00000 [A]
               0.00000   0.00000  16.99100 [A]                  0.00000   0.00000  16.99100 [A]
Box-lengths:   16.99100  16.99100  16.99100 [A] Average:  16.99100  16.99100  16.99100 [A]
Box-angles:   90.00000  90.00000  90.00000 [degrees] Average:  90.00000  90.00000  90.00000 [degrees]
Volume: 4905.20113 [A^3] Average Volume: 4905.20113 [A^3]

Loadings per component:
----------------------------------------------------------------------------------------------------------------------------------------------------
Component 0 (isk_all_0), current number of integer/fractional/reaction molecules: 4/0/0 (avg.   4.00000), density: 340.27937 (avg. 340.27937) [kg/m^3]
	absolute adsorption:   4.00000 (avg.   4.00000) [mol/uc],   1.4645523264 (avg.   1.4645523264) [mol/kg], 368.0340074092 (avg. 368.0340074092) [mg/g]
	                      32.8264403244 (avg.  32.8264403244) [cm^3 STP/g],   30.3508653449 (avg.  30.3508653449) [cm^3 STP/cm^3]
	excess adsorption:     4.0000000000 (avg.   4.0000000000) [mol/uc],   1.4645523264 (avg.   1.4645523264) [mol/kg], 368.0340074092 (avg. 368.0340074092) [mg/g]
	                      32.8264403244 (avg.  32.8264403244) [cm^3 STP/g],   30.3508653449 (avg.  30.3508653449) [cm^3 STP/cm^3]
----------------------------------------------------------------------------------------------------------------------------------------------------
Degrees of freedom: 24 0 24 0
Number of Framework-atoms:    276
Number of Adsorbates:           4 (4 integer, 0 fractional, 0 reaction)
Number of Cations:              0 (0 integer, 0 fractional, 0 reaction)

Current total potential energy:            -78008.3113030226 [K]  (avg.      -76395.4691647511)
	Current Host-Host energy:                     0.0000000000 [K]  (avg.           0.0000000000)
	Current Host-Adsorbate energy:           -32918.7312229246 [K]  (avg.      -31697.9746592090)
	Current Host-Cation energy:                   0.0000000000 [K]  (avg.           0.0000000000)
	Current Adsorbate-Adsorbate energy:      -45089.5800800977 [K]  (avg.      -44697.4945055420)
	Current Cation-Cation energy:                 0.0000000000 [K]  (avg.           0.0000000000)
	Current Adsorbate-Cation energy:              0.0000000000 [K]  (avg.           0.0000000000)



Average Properties at Current cycle: 1140 out of 2500000
========================================================================================

Framework surface area:       0.0000000000 [m^2/g]        0.0000000000 [m^2/cm^3]       0.0000000000 [A^2]
	Framework 0 individual surface area:       0.0000000000 [m^2/g]        0.0000000000 [m^2/cm^3]       0.0000000000 [A^2]
	Cation surface area:                       0.0000000000 [m^2/g]        0.0000000000 [m^2/cm^3]       0.0000000000 [A^2]
Isothermal expansion coefficient:      -0.0000000058 [10^6 K^-1]
Isothermal compressibility coefficient:      -0.0000000028 [10^12 Pa^-1]
Heat of vaporization:    9591.8460259630 [J/mole/K]
Compressibility:       0.0000000000 [-]
Heat capacity Cp:    2463.9569534177 [J/mole/K]
Heat capacity Cp (ConstantPressure):    2463.9569534177 [J/mole/K]
Henry coefficients
	Component 0: 0 [mol/kg/Pa] (Rosenbluth factor new: 0 [-])
Energy <U_gh>_1-<U_h>_0 from Widom


Current cycle: 1140 out of 2500000
========================================================================================================

Net charge: 4e-07 (F: 0, A: 4e-07, C: 0)
Current Box:  16.99100   0.00000   0.00000 [A]   Average Box:  16.99100   0.00000   0.00000 [A]
               0.00000  16.99100   0.00000 [A]                  0.00000  16.99100   0.00000 [A]
               0.00000   0.00000  16.99100 [A]                  0.00000   0.00000  16.99100 [A]
Box-lengths:   16.99100  16.99100  16.99100 [A] Average:  16.99100  16.99100  16.99100 [A]
Box-angles:   90.00000  90.00000  90.00000 [degrees] Average:  90.00000  90.00000  90.00000 [degrees]
Volume: 4905.20113 [A^3] Average Volume: 4905.20113 [A^3]

Loadings per component:
----------------------------------------------------------------------------------------------------------------------------------------------------
Component 0 (isk_all_0), current number of integer/fractional/reaction molecules: 4/0/0 (avg.   4.00000), density: 340.27937 (avg. 340.27937) [kg/m^3]
	absolute adsorption:   4.00000 (avg.   4.00000) [mol/uc],   1.4645523264 (avg.   1.4645523264) [mol/kg], 368.0340074092 (avg. 368.0340074092) [mg/g]
	                      32.8264403244 (avg.  32.8264403244) [cm^3 STP/g],   30.3508653449 (avg.  30.3508653449) [cm^3 STP/cm^3]
	excess adsorption:     4.0000000000 (avg.   4.0000000000) [mol/uc],   1.4645523264 (avg.   1.4645523264) [mol/kg], 368.0340074092 (avg. 368.0340074092) [mg/g]
	                      32.8264403244 (avg.  32.8264403244) [cm^3 STP/g],   30.3508653449 (avg.  30.3508653449) [cm^3 STP/cm^3]
----------------------------------------------------------------------------------------------------------------------------------------------------
Degrees of freedom: 24 0 24 0
Number of Framework-atoms:    276
Number of Adsorbates:           4 (4 integer, 0 fractional, 0 reaction)
Number of Cations:              0 (0 integer, 0 fractional, 0 reaction)

Current total potential energy:            -78346.3871896573 [K]  (avg.      -76408.9991555111)
	Current Host-Host energy:                     0.0000000000 [K]  (avg.           0.0000000000)
	Current Host-Adsorbate energy:           -32197.0845416923 [K]  (avg.      -31706.8836953038)
	Current Host-Cation energy:                   0.0000000000 [K]  (avg.           0.0000000000)
	Current Adsorbate-Adsorbate energy:      -46149.3026479647 [K]  (avg.      -44702.1154602072)
	Current Cation-Cation energy:                 0.0000000000 [K]  (avg.           0.0000000000)
	Current Adsorbate-Cation energy:              0.0000000000 [K]  (avg.           0.0000000000)



Average Properties at Current cycle: 1150 out of 2500000
========================================================================================

Framework surface area:       0.0000000000 [m^2/g]        0.0000000000 [m^2/cm^3]       0.0000000000 [A^2]
	Framework 0 individual surface area:       0.0000000000 [m^2/g]        0.0000000000 [m^2/cm^3]       0.0000000000 [A^2]
	Cation surface area:                       0.0000000000 [m^2/g]        0.0000000000 [m^2/cm^3]       0.0000000000 [A^2]
Isothermal expansion coefficient:      -0.0000000063 [10^6 K^-1]
Isothermal compressibility coefficient:      -0.0000000031 [10^12 Pa^-1]
Heat of vaporization:    9592.6893422810 [J/mole/K]
Compressibility:       0.0000000000 [-]
Heat capacity Cp:    2442.9463338958 [J/mole/K]
Heat capacity Cp (ConstantPressure):    2442.9463338958 [J/mole/K]
Henry coefficients
	Component 0: 0 [mol/kg/Pa] (Rosenbluth factor new: 0 [-])
Energy <U_gh>_1-<U_h>_0 from Widom


Current cycle: 1150 out of 2500000
========================================================================================================

Net charge: 4e-07 (F: 0, A: 4e-07, C: 0)
Current Box:  16.99100   0.00000   0.00000 [A]   Average Box:  16.99100   0.00000   0.00000 [A]
               0.00000  16.99100   0.00000 [A]                  0.00000  16.99100   0.00000 [A]
               0.00000   0.00000  16.99100 [A]                  0.00000   0.00000  16.99100 [A]
Box-lengths:   16.99100  16.99100  16.99100 [A] Average:  16.99100  16.99100  16.99100 [A]
Box-angles:   90.00000  90.00000  90.00000 [degrees] Average:  90.00000  90.00000  90.00000 [degrees]
Volume: 4905.20113 [A^3] Average Volume: 4905.20113 [A^3]

Loadings per component:
----------------------------------------------------------------------------------------------------------------------------------------------------
Component 0 (isk_all_0), current number of integer/fractional/reaction molecules: 4/0/0 (avg.   4.00000), density: 340.27937 (avg. 340.27937) [kg/m^3]
	absolute adsorption:   4.00000 (avg.   4.00000) [mol/uc],   1.4645523264 (avg.   1.4645523264) [mol/kg], 368.0340074092 (avg. 368.0340074092) [mg/g]
	                      32.8264403244 (avg.  32.8264403244) [cm^3 STP/g],   30.3508653449 (avg.  30.3508653449) [cm^3 STP/cm^3]
	excess adsorption:     4.0000000000 (avg.   4.0000000000) [mol/uc],   1.4645523264 (avg.   1.4645523264) [mol/kg], 368.0340074092 (avg. 368.0340074092) [mg/g]
	                      32.8264403244 (avg.  32.8264403244) [cm^3 STP/g],   30.3508653449 (avg.  30.3508653449) [cm^3 STP/cm^3]
----------------------------------------------------------------------------------------------------------------------------------------------------
Degrees of freedom: 24 0 24 0
Number of Framework-atoms:    276
Number of Adsorbates:           4 (4 integer, 0 fractional, 0 reaction)
Number of Cations:              0 (0 integer, 0 fractional, 0 reaction)

Current total potential energy:            -77427.2537522861 [K]  (avg.      -76416.3406861988)
	Current Host-Host energy:                     0.0000000000 [K]  (avg.           0.0000000000)
	Current Host-Adsorbate energy:           -32182.9869370725 [K]  (avg.      -31710.1681179300)
	Current Host-Cation energy:                   0.0000000000 [K]  (avg.           0.0000000000)
	Current Adsorbate-Adsorbate energy:      -45244.2668152133 [K]  (avg.      -44706.1725682688)
	Current Cation-Cation energy:                 0.0000000000 [K]  (avg.           0.0000000000)
	Current Adsorbate-Cation energy:              0.0000000000 [K]  (avg.           0.0000000000)



Average Properties at Current cycle: 1160 out of 2500000
========================================================================================

Framework surface area:       0.0000000000 [m^2/g]        0.0000000000 [m^2/cm^3]       0.0000000000 [A^2]
	Framework 0 individual surface area:       0.0000000000 [m^2/g]        0.0000000000 [m^2/cm^3]       0.0000000000 [A^2]
	Cation surface area:                       0.0000000000 [m^2/g]        0.0000000000 [m^2/cm^3]       0.0000000000 [A^2]
Isothermal expansion coefficient:      -0.0000000058 [10^6 K^-1]
Isothermal compressibility coefficient:      -0.0000000037 [10^12 Pa^-1]
Heat of vaporization:    9593.8151285230 [J/mole/K]
Compressibility:       0.0000000000 [-]
Heat capacity Cp:    2422.2566115304 [J/mole/K]
Heat capacity Cp (ConstantPressure):    2422.2566115304 [J/mole/K]
Henry coefficients
	Component 0: 0 [mol/kg/Pa] (Rosenbluth factor new: 0 [-])
Energy <U_gh>_1-<U_h>_0 from Widom


Current cycle: 1160 out of 2500000
========================================================================================================

Net charge: 4e-07 (F: 0, A: 4e-07, C: 0)
Current Box:  16.99100   0.00000   0.00000 [A]   Average Box:  16.99100   0.00000   0.00000 [A]
               0.00000  16.99100   0.00000 [A]                  0.00000  16.99100   0.00000 [A]
               0.00000   0.00000  16.99100 [A]                  0.00000   0.00000  16.99100 [A]
Box-lengths:   16.99100  16.99100  16.99100 [A] Average:  16.99100  16.99100  16.99100 [A]
Box-angles:   90.00000  90.00000  90.00000 [degrees] Average:  90.00000  90.00000  90.00000 [degrees]
Volume: 4905.20113 [A^3] Average Volume: 4905.20113 [A^3]

Loadings per component:
----------------------------------------------------------------------------------------------------------------------------------------------------
Component 0 (isk_all_0), current number of integer/fractional/reaction molecules: 4/0/0 (avg.   4.00000), density: 340.27937 (avg. 340.27937) [kg/m^3]
	absolute adsorption:   4.00000 (avg.   4.00000) [mol/uc],   1.4645523264 (avg.   1.4645523264) [mol/kg], 368.0340074092 (avg. 368.0340074092) [mg/g]
	                      32.8264403244 (avg.  32.8264403244) [cm^3 STP/g],   30.3508653449 (avg.  30.3508653449) [cm^3 STP/cm^3]
	excess adsorption:     4.0000000000 (avg.   4.0000000000) [mol/uc],   1.4645523264 (avg.   1.4645523264) [mol/kg], 368.0340074092 (avg. 368.0340074092) [mg/g]
	                      32.8264403244 (avg.  32.8264403244) [cm^3 STP/g],   30.3508653449 (avg.  30.3508653449) [cm^3 STP/cm^3]
----------------------------------------------------------------------------------------------------------------------------------------------------
Degrees of freedom: 24 0 24 0
Number of Framework-atoms:    276
Number of Adsorbates:           4 (4 integer, 0 fractional, 0 reaction)
Number of Cations:              0 (0 integer, 0 fractional, 0 reaction)

Current total potential energy:            -77633.5248645736 [K]  (avg.      -76424.0797513915)
	Current Host-Host energy:                     0.0000000000 [K]  (avg.           0.0000000000)
	Current Host-Adsorbate energy:           -32302.8639557519 [K]  (avg.      -31712.4911413123)
	Current Host-Cation energy:                   0.0000000000 [K]  (avg.           0.0000000000)
	Current Adsorbate-Adsorbate energy:      -45330.6609088214 [K]  (avg.      -44711.5886100792)
	Current Cation-Cation energy:                 0.0000000000 [K]  (avg.           0.0000000000)
	Current Adsorbate-Cation energy:              0.0000000000 [K]  (avg.           0.0000000000)



Average Properties at Current cycle: 1170 out of 2500000
========================================================================================

Framework surface area:       0.0000000000 [m^2/g]        0.0000000000 [m^2/cm^3]       0.0000000000 [A^2]
	Framework 0 individual surface area:       0.0000000000 [m^2/g]        0.0000000000 [m^2/cm^3]       0.0000000000 [A^2]
	Cation surface area:                       0.0000000000 [m^2/g]        0.0000000000 [m^2/cm^3]       0.0000000000 [A^2]
Isothermal expansion coefficient:      -0.0000000060 [10^6 K^-1]
Isothermal compressibility coefficient:      -0.0000000042 [10^12 Pa^-1]
Heat of vaporization:    9595.3278135433 [J/mole/K]
Compressibility:       0.0000000000 [-]
Heat capacity Cp:    2402.3543991873 [J/mole/K]
Heat capacity Cp (ConstantPressure):    2402.3543991873 [J/mole/K]
Henry coefficients
	Component 0: 0 [mol/kg/Pa] (Rosenbluth factor new: 0 [-])
Energy <U_gh>_1-<U_h>_0 from Widom


Current cycle: 1170 out of 2500000
========================================================================================================

Net charge: 4e-07 (F: 0, A: 4e-07, C: 0)
Current Box:  16.99100   0.00000   0.00000 [A]   Average Box:  16.99100   0.00000   0.00000 [A]
               0.00000  16.99100   0.00000 [A]                  0.00000  16.99100   0.00000 [A]
               0.00000   0.00000  16.99100 [A]                  0.00000   0.00000  16.99100 [A]
Box-lengths:   16.99100  16.99100  16.99100 [A] Average:  16.99100  16.99100  16.99100 [A]
Box-angles:   90.00000  90.00000  90.00000 [degrees] Average:  90.00000  90.00000  90.00000 [degrees]
Volume: 4905.20113 [A^3] Average Volume: 4905.20113 [A^3]

Loadings per component:
----------------------------------------------------------------------------------------------------------------------------------------------------
Component 0 (isk_all_0), current number of integer/fractional/reaction molecules: 4/0/0 (avg.   4.00000), density: 340.27937 (avg. 340.27937) [kg/m^3]
	absolute adsorption:   4.00000 (avg.   4.00000) [mol/uc],   1.4645523264 (avg.   1.4645523264) [mol/kg], 368.0340074092 (avg. 368.0340074092) [mg/g]
	                      32.8264403244 (avg.  32.8264403244) [cm^3 STP/g],   30.3508653449 (avg.  30.3508653449) [cm^3 STP/cm^3]
	excess adsorption:     4.0000000000 (avg.   4.0000000000) [mol/uc],   1.4645523264 (avg.   1.4645523264) [mol/kg], 368.0340074092 (avg. 368.0340074092) [mg/g]
	                      32.8264403244 (avg.  32.8264403244) [cm^3 STP/g],   30.3508653449 (avg.  30.3508653449) [cm^3 STP/cm^3]
----------------------------------------------------------------------------------------------------------------------------------------------------
Degrees of freedom: 24 0 24 0
Number of Framework-atoms:    276
Number of Adsorbates:           4 (4 integer, 0 fractional, 0 reaction)
Number of Cations:              0 (0 integer, 0 fractional, 0 reaction)

Current total potential energy:            -78132.1708502147 [K]  (avg.      -76438.8713252028)
	Current Host-Host energy:                     0.0000000000 [K]  (avg.           0.0000000000)
	Current Host-Adsorbate energy:           -32748.9087114450 [K]  (avg.      -31720.0053430872)
	Current Host-Cation energy:                   0.0000000000 [K]  (avg.           0.0000000000)
	Current Adsorbate-Adsorbate energy:      -45383.2621387694 [K]  (avg.      -44718.8659821155)
	Current Cation-Cation energy:                 0.0000000000 [K]  (avg.           0.0000000000)
	Current Adsorbate-Cation energy:              0.0000000000 [K]  (avg.           0.0000000000)



