 Entering Gaussian System
 *********************************************
 Gaussian 98:
 frequency output generated by the xtb code
 *********************************************
                         Standard orientation:
 --------------------------------------------------------------------
  Center     Atomic     Atomic              Coordinates (Angstroms)
  Number     Number      Type              X           Y           Z
 --------------------------------------------------------------------
    1          8             0       -0.771273   -2.262758   -0.621876
    2          8             0       -1.859696    1.097864   -0.295639
    3          8             0       -2.262397   -0.718286    0.965293
    4          6             0       -0.651220   -0.878051   -0.797609
    5          6             0        0.703325   -0.324891   -0.376301
    6          6             0        1.108641    0.922613   -0.834102
    7          6             0        1.525370   -1.043551    0.478036
    8          6             0       -1.689513   -0.156395    0.053284
    9          6             0        2.326480    1.444121   -0.436640
   10          6             0        2.746562   -0.520632    0.869357
   11          6             0        3.147494    0.724124    0.416612
   12          6             0       -2.761390    1.906691    0.474402
   13          1             0       -0.826410   -0.644909   -1.854535
   14          1             0        0.466057    1.482142   -1.496821
   15          1             0        1.213706   -2.018569    0.818972
   16          1             0        2.636610    2.413214   -0.796037
   17          1             0        3.382186   -1.088746    1.531093
   18          1             0        4.097891    1.131820    0.724830
   19          1             0       -1.303465   -2.419313    0.177992
   20          1             0       -2.194639    2.432272    1.242133
   21          1             0       -3.205689    2.610981   -0.223035
   22          1             0       -3.521225    1.278784    0.939791
 --------------------------------------------------------------------
     1 basis functions        1 primitive gaussians
     1 alpha electrons        1 beta electrons

 Harmonic frequencies (cm**-1), IR intensities (km*mol⁻¹),
 Raman scattering activities (A**4/amu), Raman depolarization ratios,
 reduced masses (AMU), force constants (mDyne/A) and normal coordinates:
                      1                      2                      3
                        a                      a                      a 
 Frequencies --    29.0036                32.8857                54.4913
 Red. masses --    10.4179                 1.6438                14.7756
 Frc consts  --     0.0000                 0.0000                 0.0000
 IR Inten    --     0.9445                 0.2538                 0.9239
 Raman Activ --     0.0000                 0.0000                 0.0000
 Depolar     --     0.0000                 0.0000                 0.0000
 Atom AN      X      Y      Z        X      Y      Z        X      Y      Z
   1   8    -0.03   0.01   0.18    -0.00   0.01  -0.02     0.09  -0.02   0.29
   2   8    -0.15  -0.02  -0.22    -0.02  -0.02  -0.02     0.22   0.08   0.21
   3   8     0.11   0.19   0.16     0.03  -0.02   0.03    -0.62  -0.18  -0.43
   4   6     0.01  -0.01   0.07    -0.00   0.01   0.00     0.03  -0.02   0.14
   5   6     0.02  -0.01   0.06    -0.00  -0.00   0.01     0.03   0.02   0.09
   6   6    -0.11   0.12   0.30    -0.03   0.04   0.09    -0.03   0.04   0.09
   7   6     0.18  -0.17  -0.24     0.03  -0.05  -0.06     0.13  -0.00  -0.03
   8   6     0.00   0.06   0.01    -0.01  -0.00   0.01    -0.12  -0.03  -0.03
   9   6    -0.09   0.10   0.27    -0.03   0.03   0.09     0.00   0.04  -0.02
  10   6     0.21  -0.20  -0.27     0.03  -0.06  -0.05     0.17  -0.00  -0.15
  11   6     0.07  -0.06  -0.02     0.00  -0.02   0.02     0.11   0.02  -0.14
  12   6    -0.19  -0.01  -0.27     0.00   0.08  -0.09     0.02   0.05   0.00
  13   1     0.01  -0.02   0.02    -0.00   0.01   0.00     0.02  -0.03   0.03
  14   1    -0.07   0.07   0.15    -0.02   0.02   0.04    -0.03   0.02   0.05
  15   1     0.08  -0.08  -0.13     0.02  -0.02  -0.04     0.05  -0.01  -0.01
  16   1    -0.06   0.06   0.13    -0.02   0.02   0.04    -0.01   0.02  -0.00
  17   1     0.10  -0.09  -0.15     0.02  -0.03  -0.03     0.07  -0.01  -0.07
  18   1     0.02  -0.02  -0.01     0.00  -0.01   0.01     0.04   0.00  -0.07
  19   1     0.03   0.02   0.07     0.01  -0.00  -0.00    -0.09   0.01   0.00
  20   1    -0.09  -0.08   0.01     0.11   0.44  -0.39    -0.03   0.04   0.01
  21   1     0.04   0.06  -0.07    -0.41  -0.33  -0.13     0.02  -0.01  -0.03
  22   1    -0.13   0.01  -0.18     0.31  -0.02   0.42     0.00   0.01  -0.02
                      4                      5                      6
                        a                      a                      a 
 Frequencies --    69.5844               162.3703               184.0483
 Red. masses --    10.4386                11.1376                12.1688
 Frc consts  --     0.0000                 0.0000                 0.0000
 IR Inten    --     0.9981                 6.7233                 1.6794
 Raman Activ --     0.0000                 0.0000                 0.0000
 Depolar     --     0.0000                 0.0000                 0.0000
 Atom AN      X      Y      Z        X      Y      Z        X      Y      Z
   1   8    -0.06  -0.18   0.08    -0.20   0.02   0.09     0.13   0.07   0.56
   2   8     0.25  -0.03  -0.08     0.33   0.18   0.33    -0.26   0.06  -0.18
   3   8     0.04   0.05  -0.03     0.05   0.04   0.01     0.09   0.02  -0.20
   4   6    -0.03  -0.18  -0.06     0.01  -0.00  -0.01     0.02  -0.00  -0.09
   5   6    -0.05  -0.11  -0.09     0.11  -0.14  -0.24     0.03   0.07  -0.20
   6   6    -0.20  -0.02   0.03     0.10  -0.13  -0.23     0.13   0.06  -0.14
   7   6     0.03  -0.08  -0.14     0.11  -0.13  -0.22    -0.06  -0.02  -0.19
   8   6     0.06  -0.05  -0.07     0.16   0.10   0.13    -0.03   0.07  -0.21
   9   6    -0.31   0.14   0.15    -0.05   0.01   0.01     0.11  -0.02   0.04
  10   6    -0.07   0.07  -0.03    -0.03   0.01   0.02    -0.10  -0.09   0.01
  11   6    -0.25   0.19   0.13    -0.16   0.12   0.22    -0.04  -0.06   0.15
  12   6     0.51   0.16   0.07    -0.30  -0.10  -0.13    -0.02  -0.13   0.30
  13   1    -0.01  -0.08  -0.02    -0.05  -0.00   0.00    -0.00  -0.11  -0.05
  14   1    -0.07  -0.02   0.01     0.04  -0.05  -0.09     0.06   0.03  -0.05
  15   1     0.05  -0.05  -0.07     0.04  -0.05  -0.09    -0.04  -0.01  -0.09
  16   1    -0.13   0.06   0.07    -0.03   0.02   0.03     0.06  -0.00   0.04
  17   1    -0.00   0.03  -0.02    -0.02   0.02   0.03    -0.06  -0.04   0.01
  18   1    -0.10   0.09   0.07    -0.09   0.08   0.14    -0.03  -0.02   0.10
  19   1    -0.01  -0.02   0.03    -0.08   0.04   0.01    -0.02   0.12   0.13
  20   1     0.21  -0.01   0.01    -0.23   0.06   0.01     0.07  -0.07   0.05
  21   1     0.18   0.09   0.04    -0.09  -0.10  -0.11    -0.09  -0.01   0.17
  22   1     0.11   0.10   0.03    -0.07  -0.10  -0.10     0.06  -0.08   0.14
                      7                      8                      9
                        a                      a                      a 
 Frequencies --   221.9336               245.2161               315.9912
 Red. masses --    11.9539                11.5389                13.0581
 Frc consts  --     0.0000                 0.0000                 0.0000
 IR Inten    --    11.4575                 4.7014                55.5226
 Raman Activ --     0.0000                 0.0000                 0.0000
 Depolar     --     0.0000                 0.0000                 0.0000
 Atom AN      X      Y      Z        X      Y      Z        X      Y      Z
   1   8     0.47  -0.01   0.11     0.02   0.03  -0.14     0.48  -0.12  -0.20
   2   8     0.17  -0.12   0.17    -0.38  -0.18  -0.06     0.08   0.15  -0.08
   3   8    -0.03  -0.14   0.19    -0.30  -0.08   0.15    -0.29   0.54   0.09
   4   6    -0.07   0.03   0.01    -0.04   0.07   0.14    -0.00  -0.03   0.08
   5   6    -0.12   0.23  -0.17     0.12  -0.05  -0.09    -0.02  -0.05   0.05
   6   6    -0.00   0.22  -0.08     0.23  -0.12  -0.20    -0.05  -0.10  -0.05
   7   6    -0.27   0.08  -0.17     0.23  -0.08  -0.21     0.01  -0.10  -0.02
   8   6    -0.02  -0.12   0.18    -0.20  -0.08   0.17    -0.04   0.08  -0.01
   9   6     0.06   0.01   0.04     0.14  -0.01  -0.02    -0.08  -0.06  -0.05
  10   6    -0.24  -0.13  -0.05     0.12   0.03   0.00    -0.02  -0.05  -0.01
  11   6    -0.07  -0.16   0.03     0.00   0.16   0.25    -0.11  -0.01   0.03
  12   6     0.06   0.13  -0.23     0.06   0.25  -0.01    -0.05  -0.20   0.15
  13   1    -0.10  -0.01   0.01    -0.05   0.06   0.05    -0.01   0.00   0.03
  14   1     0.03   0.10  -0.02     0.09  -0.05  -0.09    -0.02  -0.05  -0.03
  15   1    -0.12   0.03  -0.08     0.09  -0.04  -0.09     0.02  -0.04  -0.02
  16   1     0.07  -0.00   0.04     0.03  -0.00  -0.01    -0.02  -0.02  -0.03
  17   1    -0.10  -0.08  -0.02     0.03   0.01   0.01     0.01  -0.01  -0.01
  18   1    -0.01  -0.09   0.03    -0.05   0.10   0.16    -0.05   0.02   0.02
  19   1     0.06  -0.04  -0.02     0.06  -0.05  -0.01     0.27  -0.14   0.02
  20   1    -0.03   0.06  -0.05     0.11   0.02  -0.04    -0.03  -0.05   0.05
  21   1     0.10   0.02  -0.14     0.08   0.11  -0.01    -0.11  -0.06   0.10
  22   1    -0.05   0.09  -0.10    -0.04   0.18   0.04     0.06  -0.14   0.04
                     10                     11                     12
                        a                      a                      a 
 Frequencies --   342.2494               355.0159               370.7616
 Red. masses --     3.2871                11.8214                 8.7481
 Frc consts  --     0.0000                 0.0000                 0.0000
 IR Inten    --   147.3987                 7.4007                 3.4318
 Raman Activ --     0.0000                 0.0000                 0.0000
 Depolar     --     0.0000                 0.0000                 0.0000
 Atom AN      X      Y      Z        X      Y      Z        X      Y      Z
   1   8    -0.28  -0.03  -0.05     0.35   0.10   0.03    -0.02   0.00  -0.00
   2   8     0.10  -0.01   0.07    -0.19   0.21   0.17    -0.00   0.00   0.01
   3   8    -0.04  -0.07  -0.04     0.25  -0.23  -0.17    -0.01  -0.01  -0.01
   4   6    -0.03  -0.05  -0.04     0.10   0.07  -0.06     0.00   0.00  -0.00
   5   6    -0.02   0.05  -0.05     0.03  -0.16   0.12     0.00   0.00  -0.01
   6   6     0.02   0.09   0.05    -0.14  -0.19   0.01     0.19  -0.18  -0.34
   7   6    -0.01   0.06  -0.06     0.04  -0.20   0.09    -0.19   0.19   0.33
   8   6    -0.07  -0.06  -0.05     0.01   0.11  -0.09    -0.01  -0.01  -0.01
   9   6     0.09  -0.00  -0.01    -0.19  -0.09  -0.09    -0.17   0.18   0.33
  10   6    -0.03   0.05   0.05    -0.01  -0.06   0.03     0.18  -0.18  -0.33
  11   6     0.07  -0.01   0.01    -0.17  -0.03  -0.06     0.00  -0.00   0.01
  12   6     0.01  -0.01  -0.02    -0.16   0.39   0.03    -0.00   0.00   0.00
  13   1    -0.01  -0.07  -0.02     0.07  -0.01  -0.03     0.00  -0.01  -0.00
  14   1     0.01   0.05   0.03    -0.08  -0.10  -0.00     0.12  -0.11  -0.21
  15   1     0.02   0.00  -0.03     0.03  -0.06   0.02    -0.12   0.12   0.21
  16   1     0.04  -0.01  -0.01    -0.07  -0.03  -0.04    -0.11   0.11   0.21
  17   1    -0.03   0.01   0.03     0.03   0.02   0.00     0.11  -0.12  -0.21
  18   1     0.03  -0.02  -0.00    -0.06   0.02  -0.03     0.00  -0.00   0.00
  19   1     0.73   0.03   0.53     0.21   0.02   0.09     0.11   0.00   0.07
  20   1    -0.02   0.01  -0.00    -0.05   0.11   0.01    -0.00   0.00   0.00
  21   1     0.01  -0.01  -0.02     0.02   0.11  -0.04     0.00   0.00  -0.00
  22   1     0.00  -0.01  -0.02    -0.09   0.16  -0.00    -0.00   0.00   0.00
                     13                     14                     15
                        a                      a                      a 
 Frequencies --   443.3761               478.3802               573.1504
 Red. masses --    11.1298                11.0455                11.8566
 Frc consts  --     0.0000                 0.0000                 0.0000
 IR Inten    --     4.8152                12.5893                16.7293
 Raman Activ --     0.0000                 0.0000                 0.0000
 Depolar     --     0.0000                 0.0000                 0.0000
 Atom AN      X      Y      Z        X      Y      Z        X      Y      Z
   1   8    -0.07   0.38   0.04     0.00   0.34   0.02     0.17   0.32   0.10
   2   8     0.14  -0.11  -0.14    -0.05  -0.14  -0.13     0.13  -0.03   0.03
   3   8     0.04  -0.13  -0.02    -0.18  -0.03  -0.01     0.02  -0.02   0.13
   4   6     0.06   0.25   0.14     0.16   0.22   0.11    -0.31   0.17  -0.26
   5   6    -0.10   0.20   0.40     0.32  -0.18  -0.29    -0.18  -0.25  -0.02
   6   6    -0.05  -0.01  -0.07    -0.06   0.00  -0.05     0.15  -0.32   0.21
   7   6    -0.02  -0.13   0.01     0.00  -0.14   0.05    -0.05  -0.12  -0.01
   8   6     0.04  -0.02   0.04     0.15   0.04   0.23    -0.26  -0.07  -0.10
   9   6    -0.02  -0.06  -0.22    -0.18   0.11   0.09     0.06   0.01   0.08
  10   6     0.02  -0.15  -0.14    -0.12   0.00   0.19    -0.11   0.22  -0.13
  11   6    -0.29   0.06   0.15    -0.06  -0.18  -0.28     0.23   0.16  -0.03
  12   6     0.16  -0.22  -0.09     0.10  -0.13  -0.04     0.08  -0.11  -0.06
  13   1     0.07   0.11   0.04    -0.06   0.12   0.06    -0.09   0.04  -0.07
  14   1    -0.00  -0.07  -0.09    -0.09   0.01   0.07     0.04  -0.07   0.07
  15   1     0.01  -0.07  -0.08    -0.06   0.00   0.08     0.08  -0.04   0.08
  16   1     0.06  -0.07  -0.14    -0.09   0.08   0.13    -0.09   0.03  -0.01
  17   1     0.08  -0.07  -0.13    -0.06   0.09   0.15    -0.05   0.06  -0.01
  18   1    -0.11   0.04   0.09     0.00  -0.06  -0.11     0.07   0.01   0.02
  19   1     0.05   0.10   0.06     0.08   0.09   0.06     0.01   0.10   0.01
  20   1     0.04  -0.07  -0.02     0.06  -0.06  -0.02    -0.01  -0.02  -0.00
  21   1     0.02  -0.05   0.00     0.01  -0.02   0.02     0.01  -0.04  -0.02
  22   1     0.07  -0.09  -0.03     0.03  -0.03   0.01     0.03  -0.05  -0.03
                     16                     17                     18
                        a                      a                      a 
 Frequencies --   589.8606               651.8536               665.0881
 Red. masses --    11.3714                10.9682                11.3320
 Frc consts  --     0.0000                 0.0000                 0.0000
 IR Inten    --     3.5062                15.6284                 8.9572
 Raman Activ --     0.0000                 0.0000                 0.0000
 Depolar     --     0.0000                 0.0000                 0.0000
 Atom AN      X      Y      Z        X      Y      Z        X      Y      Z
   1   8    -0.06  -0.18  -0.02     0.05  -0.02  -0.01    -0.02   0.10   0.04
   2   8    -0.06   0.00   0.01    -0.07   0.07  -0.17    -0.01  -0.19   0.23
   3   8    -0.02   0.03  -0.04    -0.04  -0.13  -0.15    -0.08   0.24   0.15
   4   6     0.13  -0.08   0.09    -0.09   0.00   0.08     0.14   0.01  -0.29
   5   6     0.11  -0.05   0.10    -0.03  -0.20  -0.27     0.26  -0.09  -0.20
   6   6     0.31   0.01   0.18    -0.13  -0.01   0.27    -0.09   0.17   0.13
   7   6    -0.23  -0.35   0.09    -0.17   0.18   0.13    -0.02   0.02   0.25
   8   6     0.11   0.01   0.04     0.32   0.19   0.29    -0.18  -0.22  -0.22
   9   6     0.24   0.44  -0.13     0.11  -0.24  -0.15     0.10  -0.02  -0.25
  10   6    -0.34   0.06  -0.25     0.06  -0.02  -0.30     0.18  -0.19  -0.10
  11   6    -0.14   0.10  -0.10     0.03   0.18   0.25    -0.22   0.04   0.13
  12   6    -0.04   0.05   0.03     0.01  -0.00  -0.01    -0.02   0.00   0.02
  13   1     0.05  -0.03   0.02    -0.16   0.03   0.05     0.08  -0.03  -0.10
  14   1     0.04  -0.05   0.05    -0.04   0.06   0.13    -0.09   0.06   0.11
  15   1    -0.04  -0.10   0.03    -0.04   0.08   0.13    -0.07   0.05   0.13
  16   1     0.06   0.12  -0.05    -0.02  -0.05  -0.06     0.04   0.01  -0.01
  17   1    -0.04   0.07  -0.08    -0.02  -0.03  -0.07     0.06   0.00   0.01
  18   1    -0.01  -0.10   0.06    -0.03   0.08   0.13    -0.10   0.06   0.10
  19   1    -0.00  -0.05   0.00     0.06  -0.05   0.02    -0.05   0.13   0.01
  20   1     0.00   0.01   0.00     0.02  -0.02   0.00    -0.01   0.03  -0.02
  21   1    -0.00   0.01   0.00    -0.03   0.02   0.04     0.06  -0.03  -0.07
  22   1    -0.02   0.03   0.01     0.02  -0.03  -0.00    -0.05   0.07   0.02
                     19                     20                     21
                        a                      a                      a 
 Frequencies --   716.9954               764.8146               830.9569
 Red. masses --     7.8347                 7.6835                10.7544
 Frc consts  --     0.0000                 0.0000                 0.0000
 IR Inten    --    31.9167                12.8036                 6.6800
 Raman Activ --     0.0000                 0.0000                 0.0000
 Depolar     --     0.0000                 0.0000                 0.0000
 Atom AN      X      Y      Z        X      Y      Z        X      Y      Z
   1   8     0.00  -0.08  -0.04    -0.02   0.05   0.00    -0.05   0.09  -0.05
   2   8     0.15   0.25  -0.14    -0.10  -0.22   0.15     0.05  -0.02   0.06
   3   8     0.16  -0.22   0.08    -0.05   0.20  -0.12     0.10   0.05   0.03
   4   6    -0.16   0.04   0.31     0.16  -0.02  -0.07     0.41   0.04   0.44
   5   6     0.08   0.02  -0.01    -0.20   0.13   0.25     0.12  -0.07  -0.15
   6   6     0.05   0.05  -0.08     0.03  -0.14  -0.10    -0.10  -0.06   0.02
   7   6     0.06  -0.06  -0.02    -0.01  -0.01  -0.19    -0.16   0.08  -0.09
   8   6    -0.37   0.04  -0.13     0.30  -0.06   0.00    -0.23  -0.11  -0.25
   9   6     0.08   0.04  -0.13    -0.01  -0.17  -0.01    -0.09  -0.25   0.11
  10   6     0.09  -0.11  -0.05    -0.06   0.05  -0.15    -0.24   0.16  -0.21
  11   6    -0.05  -0.06  -0.07     0.18  -0.03  -0.09     0.16   0.10   0.12
  12   6     0.03  -0.01  -0.04    -0.03   0.00   0.04    -0.02   0.01   0.02
  13   1     0.01  -0.00   0.07     0.11   0.00  -0.02     0.21   0.03   0.10
  14   1    -0.12   0.13   0.21    -0.09   0.09   0.17     0.01  -0.01  -0.02
  15   1    -0.13   0.11   0.22    -0.09   0.10   0.16    -0.03   0.02  -0.04
  16   1    -0.08   0.14   0.22    -0.18   0.09   0.22    -0.05  -0.10  -0.07
  17   1    -0.09   0.12   0.23    -0.19   0.11   0.21    -0.11  -0.05  -0.10
  18   1    -0.16   0.12   0.24    -0.13   0.16   0.29     0.11  -0.05  -0.07
  19   1    -0.00  -0.13  -0.03     0.01   0.06   0.02    -0.02  -0.04  -0.03
  20   1    -0.03  -0.03   0.03     0.02   0.03  -0.03    -0.00   0.01  -0.00
  21   1    -0.07   0.02   0.07     0.08  -0.03  -0.07     0.01  -0.00  -0.01
  22   1     0.07  -0.10  -0.04    -0.07   0.10   0.04    -0.01   0.02   0.01
                     22                     23                     24
                        a                      a                      a 
 Frequencies --   875.6647               899.6674               917.2677
 Red. masses --     3.3313                 4.2230                10.2706
 Frc consts  --     0.0000                 0.0000                 0.0000
 IR Inten    --     0.1679                 1.7730                21.6558
 Raman Activ --     0.0000                 0.0000                 0.0000
 Depolar     --     0.0000                 0.0000                 0.0000
 Atom AN      X      Y      Z        X      Y      Z        X      Y      Z
   1   8     0.00   0.00   0.00     0.01   0.01   0.00     0.02   0.05  -0.01
   2   8    -0.01  -0.01   0.02    -0.04  -0.06   0.07    -0.15  -0.16   0.27
   3   8     0.01   0.01  -0.01     0.05   0.07  -0.10     0.21   0.21  -0.30
   4   6    -0.01   0.00   0.00    -0.13   0.02   0.07    -0.35   0.08   0.36
   5   6    -0.01  -0.00   0.00    -0.05   0.01   0.03    -0.01  -0.07  -0.10
   6   6    -0.10   0.10   0.19     0.12  -0.10  -0.18    -0.00   0.03   0.10
   7   6     0.11  -0.11  -0.20     0.12  -0.09  -0.19    -0.00   0.06   0.06
   8   6     0.01   0.01  -0.01     0.07  -0.00  -0.06     0.08   0.02  -0.25
   9   6    -0.09   0.10   0.17     0.00   0.05   0.01     0.05   0.08  -0.05
  10   6     0.09  -0.09  -0.16    -0.00   0.01   0.08     0.05  -0.04   0.09
  11   6    -0.01  -0.00   0.00    -0.16   0.12   0.23    -0.03  -0.06  -0.08
  12   6     0.00  -0.01  -0.00     0.02  -0.04  -0.00     0.09  -0.18  -0.03
  13   1    -0.01   0.00   0.00    -0.04   0.01   0.02    -0.18   0.04   0.11
  14   1     0.20  -0.19  -0.36    -0.21   0.19   0.37     0.09  -0.07  -0.13
  15   1    -0.20   0.20   0.39    -0.18   0.19   0.37     0.07  -0.05  -0.11
  16   1     0.19  -0.18  -0.34     0.06  -0.04  -0.09    -0.01   0.05   0.05
  17   1    -0.18   0.17   0.32     0.10  -0.08  -0.14     0.04  -0.01  -0.00
  18   1     0.00  -0.01  -0.01     0.21  -0.21  -0.38    -0.06   0.04   0.08
  19   1     0.01  -0.01   0.00     0.02  -0.06  -0.00     0.03  -0.21  -0.03
  20   1     0.00   0.00  -0.00     0.01   0.01  -0.02     0.05   0.03  -0.08
  21   1     0.01  -0.00  -0.01     0.05  -0.03  -0.05     0.18  -0.10  -0.16
  22   1    -0.01   0.01   0.00    -0.03   0.04   0.01    -0.09   0.13   0.05
                     25                     26                     27
                        a                      a                      a 
 Frequencies --   926.5964               929.5836               979.6692
 Red. masses --     4.1993                 3.0365                11.8549
 Frc consts  --     0.0000                 0.0000                 0.0000
 IR Inten    --     0.5880                 0.0349                20.4374
 Raman Activ --     0.0000                 0.0000                 0.0000
 Depolar     --     0.0000                 0.0000                 0.0000
 Atom AN      X      Y      Z        X      Y      Z        X      Y      Z
   1   8     0.00   0.01   0.00     0.00  -0.00   0.00     0.00  -0.18   0.01
   2   8    -0.01  -0.01   0.02    -0.01  -0.00   0.01    -0.24   0.17   0.21
   3   8     0.02   0.02  -0.03     0.00   0.00  -0.00    -0.00  -0.03  -0.00
   4   6    -0.04   0.01   0.03    -0.01  -0.00  -0.01    -0.04   0.09  -0.13
   5   6     0.00  -0.00  -0.01    -0.04   0.03   0.06     0.15   0.07   0.06
   6   6     0.11  -0.11  -0.20    -0.01   0.02   0.03    -0.19   0.26  -0.26
   7   6    -0.11   0.10   0.20    -0.02   0.02   0.03    -0.06  -0.38   0.17
   8   6     0.01  -0.01  -0.02     0.01   0.01   0.01    -0.08   0.21   0.07
   9   6    -0.12   0.13   0.22     0.09  -0.09  -0.17    -0.03  -0.15   0.07
  10   6     0.13  -0.12  -0.21     0.10  -0.10  -0.17    -0.06   0.10  -0.09
  11   6    -0.00   0.00  -0.00    -0.13   0.12   0.22     0.26   0.12   0.08
  12   6     0.01  -0.01  -0.00     0.00  -0.01  -0.00     0.25  -0.25  -0.19
  13   1    -0.01   0.01   0.01     0.00   0.00  -0.00     0.01  -0.05  -0.05
  14   1    -0.18   0.17   0.32     0.09  -0.08  -0.15    -0.04   0.10  -0.06
  15   1     0.16  -0.16  -0.31     0.08  -0.08  -0.15     0.00  -0.10   0.07
  16   1     0.20  -0.20  -0.36    -0.20   0.20   0.36     0.05  -0.04   0.04
  17   1    -0.19   0.19   0.34    -0.21   0.21   0.38     0.03   0.07  -0.02
  18   1    -0.00   0.00  -0.00     0.24  -0.24  -0.44     0.07   0.04   0.02
  19   1    -0.00  -0.02  -0.01    -0.00   0.00  -0.00    -0.00   0.00   0.01
  20   1     0.00   0.00  -0.00     0.00   0.00  -0.00     0.03  -0.03  -0.05
  21   1     0.01  -0.01  -0.01     0.00  -0.00  -0.00     0.08  -0.06  -0.06
  22   1    -0.01   0.01   0.00    -0.00   0.00   0.00     0.02   0.00  -0.02
                     28                     29                     30
                        a                      a                      a 
 Frequencies --   988.2430              1081.1808              1096.2298
 Red. masses --    11.4961                 7.1930                 8.3001
 Frc consts  --     0.0000                 0.0000                 0.0000
 IR Inten    --    18.0299                 8.3693               154.1451
 Raman Activ --     0.0000                 0.0000                 0.0000
 Depolar     --     0.0000                 0.0000                 0.0000
 Atom AN      X      Y      Z        X      Y      Z        X      Y      Z
   1   8    -0.00   0.12   0.02     0.01   0.12  -0.02    -0.02  -0.45   0.06
   2   8     0.26  -0.22  -0.23    -0.03   0.03   0.01     0.17  -0.08   0.01
   3   8     0.02   0.05  -0.05    -0.01  -0.01   0.01     0.04   0.02  -0.03
   4   6    -0.23  -0.03   0.07     0.01  -0.11   0.03     0.06   0.45  -0.08
   5   6     0.08   0.05   0.02    -0.03  -0.03  -0.01     0.07   0.10   0.01
   6   6    -0.16   0.23  -0.20    -0.16  -0.03  -0.07     0.08  -0.08   0.08
   7   6    -0.04  -0.34   0.16    -0.13  -0.07  -0.04    -0.07  -0.04  -0.02
   8   6     0.15  -0.26  -0.10     0.01  -0.00   0.01    -0.08   0.05  -0.03
   9   6     0.00  -0.08   0.04     0.00   0.34  -0.18    -0.07  -0.05  -0.01
  10   6    -0.01   0.06  -0.04     0.12  -0.26   0.21     0.05  -0.07   0.06
  11   6     0.21   0.09   0.06     0.39   0.15   0.14     0.04   0.08  -0.02
  12   6    -0.28   0.27   0.22     0.03  -0.00  -0.02    -0.21  -0.04  -0.04
  13   1    -0.21   0.06   0.05     0.05  -0.09  -0.01    -0.17   0.28   0.05
  14   1    -0.01   0.08  -0.08    -0.23  -0.22  -0.02     0.04  -0.00   0.03
  15   1     0.02  -0.10   0.06    -0.26   0.00  -0.14    -0.20   0.01  -0.10
  16   1     0.05  -0.02   0.04    -0.23   0.12  -0.20    -0.18   0.00  -0.10
  17   1     0.05   0.07  -0.01    -0.16  -0.29   0.07    -0.00  -0.03   0.02
  18   1     0.06   0.03   0.01     0.12   0.03   0.05    -0.01   0.14  -0.08
  19   1     0.01  -0.06  -0.01     0.01  -0.02  -0.01    -0.00   0.11   0.06
  20   1    -0.04   0.04   0.05    -0.01   0.00   0.01     0.25  -0.15  -0.14
  21   1    -0.07   0.06   0.05    -0.01  -0.00   0.00     0.01   0.13   0.09
  22   1    -0.04   0.02   0.03     0.01  -0.02  -0.01    -0.06   0.13   0.16
                     31                     32                     33
                        a                      a                      a 
 Frequencies --  1102.2989              1123.2886              1124.8899
 Red. masses --     4.8489                 5.1040                 5.7775
 Frc consts  --     0.0000                 0.0000                 0.0000
 IR Inten    --    15.7381                79.8430                50.1065
 Raman Activ --     0.0000                 0.0000                 0.0000
 Depolar     --     0.0000                 0.0000                 0.0000
 Atom AN      X      Y      Z        X      Y      Z        X      Y      Z
   1   8    -0.02  -0.22   0.05     0.01  -0.20   0.02    -0.01  -0.06   0.03
   2   8    -0.13  -0.05  -0.13     0.10  -0.05  -0.12    -0.19   0.03   0.26
   3   8     0.00   0.01  -0.02     0.01  -0.02  -0.00     0.03   0.09  -0.05
   4   6     0.02   0.24  -0.03     0.01   0.19  -0.05     0.05   0.04  -0.00
   5   6     0.07   0.07   0.00     0.02  -0.10   0.07     0.01   0.01   0.05
   6   6     0.06  -0.05   0.06    -0.19   0.02  -0.11    -0.05  -0.02  -0.02
   7   6    -0.04  -0.01  -0.02     0.15   0.16  -0.00     0.06   0.06  -0.01
   8   6     0.01  -0.08  -0.03    -0.09   0.11   0.02     0.11  -0.28  -0.12
   9   6    -0.04  -0.05   0.00     0.05   0.15  -0.06     0.02   0.04  -0.02
  10   6     0.02  -0.03   0.03    -0.10   0.06  -0.09    -0.04   0.02  -0.03
  11   6     0.00   0.04  -0.02     0.05  -0.13   0.10     0.00  -0.05   0.03
  12   6     0.26   0.12   0.22    -0.06  -0.05   0.15     0.14   0.17  -0.30
  13   1    -0.08   0.18   0.04    -0.03   0.15   0.02    -0.29   0.23   0.10
  14   1     0.04   0.00   0.01    -0.27  -0.23  -0.02    -0.10  -0.10  -0.00
  15   1    -0.12   0.01  -0.07     0.33   0.01   0.16     0.12   0.01   0.06
  16   1    -0.11  -0.01  -0.06     0.17   0.03   0.08     0.04   0.01   0.02
  17   1     0.01  -0.01   0.01    -0.20  -0.17  -0.02    -0.08  -0.06  -0.00
  18   1    -0.02   0.09  -0.06     0.07  -0.33   0.22     0.02  -0.11   0.07
  19   1    -0.00   0.04   0.03    -0.01   0.12   0.03    -0.00   0.03   0.02
  20   1    -0.46   0.31   0.24    -0.01   0.08  -0.03    -0.02  -0.14   0.10
  21   1     0.04  -0.27  -0.23     0.13  -0.09  -0.13    -0.32   0.18   0.28
  22   1     0.04  -0.18  -0.26    -0.10   0.10   0.03     0.25  -0.26  -0.11
                     34                     35                     36
                        a                      a                      a 
 Frequencies --  1142.9229              1177.7933              1180.3885
 Red. masses --     5.6555                 1.7842                 6.1129
 Frc consts  --     0.0000                 0.0000                 0.0000
 IR Inten    --    27.8099                 6.6623               104.2612
 Raman Activ --     0.0000                 0.0000                 0.0000
 Depolar     --     0.0000                 0.0000                 0.0000
 Atom AN      X      Y      Z        X      Y      Z        X      Y      Z
   1   8     0.04   0.10  -0.08     0.01  -0.02  -0.00    -0.04   0.10   0.02
   2   8    -0.02   0.17  -0.04     0.01  -0.06   0.01    -0.02   0.24  -0.06
   3   8     0.02  -0.02   0.03     0.01   0.01  -0.02    -0.04  -0.04   0.07
   4   6     0.31  -0.40   0.05     0.03   0.02   0.03    -0.06  -0.08  -0.10
   5   6    -0.19  -0.00  -0.00    -0.11  -0.12  -0.01     0.36   0.21   0.13
   6   6    -0.00   0.01  -0.03     0.05   0.06  -0.00     0.07  -0.09   0.09
   7   6    -0.02  -0.07   0.02    -0.09  -0.06  -0.01     0.04   0.09  -0.03
   8   6    -0.13   0.03  -0.06    -0.02   0.04   0.01     0.06  -0.18  -0.03
   9   6     0.03   0.04  -0.01     0.03   0.05  -0.01     0.01  -0.16   0.09
  10   6     0.05  -0.05   0.04     0.01  -0.06   0.04    -0.10   0.09  -0.11
  11   6     0.01   0.03  -0.01    -0.00   0.07  -0.04    -0.04   0.01  -0.03
  12   6     0.02  -0.13   0.05     0.00   0.03  -0.00    -0.00  -0.11   0.02
  13   1    -0.53   0.26   0.18     0.08   0.03   0.00    -0.30  -0.12  -0.00
  14   1     0.07   0.11   0.01    -0.01  -0.01  -0.00    -0.30  -0.39   0.04
  15   1     0.02  -0.02   0.04     0.22  -0.05   0.14    -0.22   0.06  -0.14
  16   1    -0.01   0.02  -0.01     0.35  -0.02   0.21     0.16  -0.06   0.13
  17   1     0.06   0.04   0.02    -0.31  -0.35   0.02    -0.07  -0.01  -0.03
  18   1    -0.00   0.03  -0.01    -0.11   0.56  -0.37    -0.05   0.14  -0.10
  19   1    -0.03   0.36   0.04    -0.01   0.04   0.00     0.01  -0.16  -0.02
  20   1     0.01   0.05  -0.05    -0.01  -0.01   0.01     0.03   0.03  -0.05
  21   1     0.12  -0.07  -0.10    -0.02   0.00   0.01     0.09  -0.02  -0.05
  22   1    -0.09   0.11   0.04     0.02  -0.03  -0.01    -0.08   0.11   0.05
                     37                     38                     39
                        a                      a                      a 
 Frequencies --  1197.3066              1213.2179              1230.5612
 Red. masses --     4.1816                 6.8538                 8.3160
 Frc consts  --     0.0000                 0.0000                 0.0000
 IR Inten    --   116.1762               136.5650               116.1354
 Raman Activ --     0.0000                 0.0000                 0.0000
 Depolar     --     0.0000                 0.0000                 0.0000
 Atom AN      X      Y      Z        X      Y      Z        X      Y      Z
   1   8     0.04  -0.06  -0.05     0.04  -0.05   0.03     0.10  -0.01  -0.12
   2   8     0.03  -0.25   0.05    -0.07   0.36  -0.05     0.02  -0.23   0.06
   3   8     0.05   0.04  -0.07    -0.07  -0.04   0.08     0.04   0.03  -0.08
   4   6     0.03  -0.01   0.07    -0.25  -0.07   0.05    -0.36  -0.32   0.07
   5   6    -0.16  -0.10  -0.05    -0.00  -0.14  -0.02     0.37   0.09   0.11
   6   6    -0.11  -0.07  -0.02    -0.04   0.02  -0.02     0.08   0.03   0.03
   7   6    -0.11  -0.01  -0.06    -0.06   0.02  -0.04     0.12   0.06   0.04
   8   6    -0.10   0.22   0.03     0.23  -0.38  -0.05    -0.07   0.26   0.02
   9   6     0.10   0.04   0.03     0.00   0.04  -0.02    -0.06  -0.10   0.03
  10   6     0.10   0.06   0.02     0.04   0.04   0.01    -0.11   0.06  -0.09
  11   6     0.05   0.02   0.02     0.02  -0.00   0.01    -0.05  -0.00  -0.03
  12   6    -0.00   0.09  -0.00     0.01  -0.11  -0.02    -0.01   0.07  -0.01
  13   1     0.07   0.03   0.02     0.43   0.46   0.04     0.11   0.09   0.03
  14   1    -0.23  -0.23   0.00     0.04   0.04  -0.02     0.03   0.01   0.01
  15   1    -0.33   0.03  -0.19    -0.12   0.01  -0.08    -0.10   0.03  -0.07
  16   1     0.42  -0.02   0.25     0.12  -0.00   0.07    -0.14  -0.02  -0.07
  17   1     0.30   0.31  -0.00     0.04   0.04  -0.00    -0.20  -0.16  -0.02
  18   1     0.01   0.01   0.00     0.01  -0.01   0.00    -0.02  -0.01  -0.01
  19   1    -0.00   0.19   0.03     0.01   0.20   0.05    -0.02   0.47   0.05
  20   1    -0.02  -0.03   0.04     0.02   0.03  -0.05     0.00  -0.04   0.03
  21   1    -0.06   0.01   0.03     0.05   0.01  -0.00    -0.04   0.01   0.02
  22   1     0.07  -0.10  -0.05    -0.08   0.12   0.06     0.06  -0.08  -0.03
                     40                     41                     42
                        a                      a                      a 
 Frequencies --  1277.6781              1305.5015              1325.2080
 Red. masses --     3.5870                 5.9442                10.4348
 Frc consts  --     0.0000                 0.0000                 0.0000
 IR Inten    --    13.3787                50.5285                 9.1219
 Raman Activ --     0.0000                 0.0000                 0.0000
 Depolar     --     0.0000                 0.0000                 0.0000
 Atom AN      X      Y      Z        X      Y      Z        X      Y      Z
   1   8     0.03  -0.06  -0.07    -0.04   0.11   0.15     0.02  -0.03  -0.06
   2   8    -0.01   0.04  -0.00     0.02  -0.12   0.02    -0.01   0.04  -0.01
   3   8    -0.01   0.00   0.01     0.03  -0.00  -0.03    -0.01   0.00   0.01
   4   6    -0.08   0.02   0.13     0.04  -0.26  -0.21    -0.01   0.11   0.06
   5   6    -0.04   0.19  -0.15     0.08  -0.08   0.09     0.07  -0.31   0.22
   6   6     0.14   0.11   0.02     0.16   0.18  -0.01     0.25   0.24   0.01
   7   6    -0.18  -0.02  -0.09    -0.16   0.03  -0.11    -0.29   0.02  -0.17
   8   6     0.06  -0.07  -0.01    -0.13   0.22   0.04     0.04  -0.08  -0.02
   9   6     0.07  -0.04   0.07    -0.10  -0.02  -0.05    -0.35   0.02  -0.20
  10   6    -0.03  -0.09   0.04     0.05   0.09  -0.02     0.28   0.31  -0.01
  11   6     0.03  -0.15   0.10     0.04  -0.19   0.12     0.05  -0.28   0.18
  12   6     0.00  -0.01  -0.01    -0.03   0.03   0.02     0.01  -0.01  -0.01
  13   1     0.10  -0.12  -0.01     0.09   0.52   0.06    -0.15  -0.27  -0.02
  14   1    -0.28  -0.33   0.01    -0.10  -0.11   0.01     0.05   0.04   0.00
  15   1     0.37  -0.05   0.22     0.06  -0.00   0.03    -0.06   0.00  -0.03
  16   1    -0.29   0.02  -0.17    -0.12   0.01  -0.07     0.04  -0.01   0.03
  17   1     0.25   0.25   0.00     0.06   0.08  -0.01    -0.04  -0.04  -0.00
  18   1    -0.04   0.19  -0.13    -0.02   0.09  -0.05     0.01  -0.05   0.03
  19   1    -0.04   0.28   0.02     0.06  -0.45  -0.02    -0.02   0.16   0.00
  20   1    -0.00   0.01  -0.00     0.04  -0.03  -0.00    -0.02   0.02   0.00
  21   1    -0.00   0.01   0.01     0.03  -0.02  -0.04    -0.01   0.01   0.02
  22   1    -0.01   0.01   0.00     0.04  -0.06  -0.02    -0.02   0.03   0.01
                     43                     44                     45
                        a                      a                      a 
 Frequencies --  1369.6771              1423.4315              1435.4632
 Red. masses --     2.6867                 1.5782                 8.8361
 Frc consts  --     0.0000                 0.0000                 0.0000
 IR Inten    --    31.4850                16.6261                 0.1390
 Raman Activ --     0.0000                 0.0000                 0.0000
 Depolar     --     0.0000                 0.0000                 0.0000
 Atom AN      X      Y      Z        X      Y      Z        X      Y      Z
   1   8     0.00  -0.01  -0.01     0.00   0.00  -0.00     0.01  -0.00  -0.01
   2   8    -0.08   0.13   0.04     0.01   0.04   0.02    -0.00   0.01   0.00
   3   8    -0.03  -0.03   0.05     0.00   0.00   0.00    -0.00   0.00   0.00
   4   6    -0.00   0.03   0.02    -0.00   0.00   0.00     0.00   0.08  -0.02
   5   6    -0.01  -0.00  -0.00    -0.00   0.00  -0.00     0.05  -0.34   0.22
   6   6     0.00  -0.01   0.00     0.00   0.00   0.00    -0.23   0.03  -0.15
   7   6    -0.01  -0.01  -0.00    -0.00  -0.00   0.00     0.22   0.20   0.01
   8   6     0.06  -0.08  -0.04     0.00  -0.02   0.00     0.01  -0.03  -0.01
   9   6    -0.01   0.00  -0.01    -0.00  -0.00   0.00     0.27   0.19   0.05
  10   6     0.02   0.01   0.01     0.00   0.00   0.00    -0.30  -0.03  -0.15
  11   6    -0.00   0.01  -0.00    -0.00   0.00  -0.00     0.06  -0.32   0.20
  12   6    -0.22   0.19   0.12     0.13   0.13   0.12    -0.00  -0.01   0.02
  13   1    -0.01  -0.04  -0.00     0.00  -0.00  -0.00    -0.08  -0.08  -0.01
  14   1     0.01   0.01  -0.00     0.00  -0.00  -0.00     0.05   0.14  -0.05
  15   1     0.00  -0.00   0.00     0.00  -0.00   0.00    -0.12   0.08  -0.11
  16   1     0.01  -0.00   0.01     0.00  -0.00   0.00    -0.15   0.08  -0.13
  17   1    -0.00  -0.01   0.00    -0.00  -0.00   0.00     0.08   0.17  -0.05
  18   1     0.00  -0.01   0.01     0.00  -0.00   0.00    -0.07   0.29  -0.20
  19   1    -0.01   0.04   0.00    -0.00   0.00  -0.00     0.00   0.02   0.00
  20   1     0.38  -0.21  -0.13     0.33  -0.31  -0.01     0.02   0.03  -0.04
  21   1     0.35  -0.14  -0.39    -0.50  -0.44  -0.12     0.00   0.01   0.01
  22   1     0.30  -0.49  -0.13    -0.35   0.17  -0.37    -0.01  -0.02  -0.04
                     46                     47                     48
                        a                      a                      a 
 Frequencies --  1437.8767              1466.8831              1592.5879
 Red. masses --     1.6151                 8.8845                11.5538
 Frc consts  --     0.0000                 0.0000                 0.0000
 IR Inten    --     7.4943                 2.5053                 0.1103
 Raman Activ --     0.0000                 0.0000                 0.0000
 Depolar     --     0.0000                 0.0000                 0.0000
 Atom AN      X      Y      Z        X      Y      Z        X      Y      Z
   1   8    -0.00   0.00   0.00    -0.00  -0.00  -0.00     0.01   0.01   0.00
   2   8    -0.01  -0.03   0.04     0.00  -0.02   0.00    -0.00   0.00  -0.00
   3   8     0.01   0.02  -0.01    -0.00  -0.01   0.01    -0.00   0.00   0.00
   4   6    -0.00  -0.01   0.00    -0.07  -0.04  -0.03    -0.01   0.03  -0.02
   5   6    -0.01   0.02  -0.02     0.35   0.14   0.12     0.09  -0.42   0.28
   6   6     0.02   0.00   0.01    -0.13  -0.30   0.09     0.10   0.30  -0.11
   7   6    -0.01  -0.02   0.00    -0.20   0.16  -0.20    -0.16   0.19  -0.19
   8   6    -0.01  -0.00   0.01    -0.01   0.03  -0.01    -0.00  -0.01  -0.00
   9   6    -0.02  -0.02  -0.00    -0.26   0.14  -0.22     0.13  -0.19   0.18
  10   6     0.02   0.01   0.01    -0.18  -0.30   0.06    -0.08  -0.31   0.12
  11   6    -0.01   0.02  -0.02     0.24   0.07   0.09    -0.08   0.44  -0.28
  12   6     0.00  -0.13   0.17     0.00  -0.00   0.00    -0.00   0.00   0.00
  13   1     0.01   0.01   0.00    -0.04  -0.01  -0.00    -0.05  -0.03  -0.00
  14   1    -0.01  -0.01   0.00     0.21   0.18   0.02    -0.07  -0.03  -0.02
  15   1     0.01  -0.01   0.01     0.23   0.02   0.11     0.07   0.04   0.01
  16   1     0.01  -0.01   0.01     0.23   0.01   0.12    -0.05  -0.04  -0.01
  17   1    -0.01  -0.02   0.00     0.20   0.18   0.01     0.07   0.02   0.03
  18   1     0.00  -0.02   0.02     0.07   0.05   0.01     0.03  -0.10   0.07
  19   1    -0.00  -0.00  -0.00    -0.00   0.00  -0.00     0.00   0.01  -0.00
  20   1     0.19   0.48  -0.46     0.00   0.01  -0.01     0.00  -0.00   0.00
  21   1     0.01   0.24   0.27    -0.00   0.00   0.01     0.00  -0.00  -0.00
  22   1    -0.17  -0.19  -0.51    -0.00  -0.00  -0.01     0.00  -0.00   0.00
                     49                     50                     51
                        a                      a                      a 
 Frequencies --  1595.9110              1694.5496              2914.2092
 Red. masses --    11.4888                13.3337                 1.7446
 Frc consts  --     0.0000                 0.0000                 0.0000
 IR Inten    --    10.9862               769.5908                29.7020
 Raman Activ --     0.0000                 0.0000                 0.0000
 Depolar     --     0.0000                 0.0000                 0.0000
 Atom AN      X      Y      Z        X      Y      Z        X      Y      Z
   1   8     0.00   0.00  -0.00    -0.00   0.02  -0.00     0.00   0.01  -0.00
   2   8    -0.00   0.01  -0.00     0.00   0.09  -0.04     0.00  -0.00   0.00
   3   8     0.01   0.01  -0.02     0.28   0.26  -0.44    -0.00  -0.00   0.00
   4   6     0.01   0.01   0.02     0.01  -0.03  -0.04    -0.04   0.05  -0.25
   5   6    -0.23  -0.07  -0.09     0.03   0.01   0.01    -0.01  -0.00  -0.01
   6   6     0.36   0.26   0.06    -0.02  -0.02  -0.00     0.00  -0.00   0.00
   7   6     0.42   0.05   0.21    -0.02  -0.00  -0.01     0.00  -0.00   0.00
   8   6    -0.01  -0.04   0.03    -0.37  -0.38   0.60    -0.00   0.00  -0.01
   9   6    -0.42  -0.05  -0.21     0.01   0.00   0.01    -0.00   0.00  -0.00
  10   6    -0.35  -0.26  -0.06     0.01   0.01   0.00     0.00   0.00   0.00
  11   6     0.19   0.06   0.07    -0.00  -0.00  -0.00     0.00  -0.00   0.00
  12   6    -0.00   0.00  -0.00    -0.02  -0.01   0.01     0.00  -0.00   0.00
  13   1     0.02  -0.00  -0.00     0.04  -0.03  -0.01     0.14  -0.20   0.93
  14   1    -0.05  -0.09   0.02     0.01   0.01  -0.00    -0.01   0.00  -0.01
  15   1    -0.08   0.03  -0.06     0.00  -0.00   0.00     0.00  -0.00   0.00
  16   1     0.08  -0.03   0.06    -0.00   0.00  -0.00     0.00  -0.00   0.00
  17   1     0.05   0.08  -0.02    -0.00  -0.00   0.00     0.00  -0.00   0.00
  18   1     0.05   0.02   0.01    -0.00   0.00   0.00     0.00  -0.00  -0.00
  19   1     0.00   0.01   0.00    -0.01   0.03  -0.00    -0.00   0.00  -0.01
  20   1     0.00  -0.00   0.00     0.02  -0.01  -0.00    -0.00  -0.00  -0.00
  21   1     0.00  -0.00  -0.00     0.03  -0.01  -0.03    -0.00   0.00   0.00
  22   1     0.00  -0.00   0.00     0.01  -0.01   0.02     0.00   0.00  -0.00
                     52                     53                     54
                        a                      a                      a 
 Frequencies --  3001.7799              3003.5105              3045.5748
 Red. masses --     1.8854                 1.4587                 1.8193
 Frc consts  --     0.0000                 0.0000                 0.0000
 IR Inten    --     8.0453                10.0226                 0.9336
 Raman Activ --     0.0000                 0.0000                 0.0000
 Depolar     --     0.0000                 0.0000                 0.0000
 Atom AN      X      Y      Z        X      Y      Z        X      Y      Z
   1   8    -0.00  -0.00   0.00     0.00   0.00  -0.00     0.00   0.00  -0.00
   2   8     0.01   0.00  -0.00    -0.01   0.01   0.01     0.00  -0.01  -0.00
   3   8    -0.00  -0.00   0.00     0.00  -0.00  -0.00     0.00   0.00  -0.00
   4   6     0.00   0.00  -0.00    -0.00  -0.00   0.00    -0.00   0.00   0.00
   5   6    -0.00   0.00  -0.00     0.00   0.00   0.00    -0.00   0.00   0.00
   6   6     0.00  -0.00   0.00     0.00  -0.00   0.00     0.00  -0.00   0.00
   7   6    -0.00  -0.00   0.00     0.00   0.00  -0.00     0.00   0.00  -0.00
   8   6    -0.00  -0.00  -0.00     0.00  -0.00   0.00     0.00   0.00   0.00
   9   6    -0.00  -0.00   0.00    -0.00  -0.00   0.00     0.00   0.00  -0.00
  10   6     0.00  -0.00   0.00    -0.00   0.00  -0.00    -0.00   0.00  -0.00
  11   6     0.00   0.00   0.00    -0.00   0.00  -0.00    -0.00   0.00  -0.00
  12   6     0.23   0.17  -0.00     0.04   0.06   0.19     0.08  -0.18   0.19
  13   1     0.00   0.00   0.00    -0.00   0.00  -0.00    -0.00   0.00  -0.00
  14   1    -0.00   0.00  -0.00    -0.00   0.00  -0.00    -0.00   0.00  -0.00
  15   1     0.00   0.00  -0.00    -0.00  -0.00   0.00    -0.00  -0.00   0.00
  16   1     0.00   0.00  -0.00     0.00   0.00  -0.00    -0.00  -0.00   0.00
  17   1    -0.00   0.00  -0.00     0.00  -0.00   0.00     0.00  -0.00   0.00
  18   1    -0.00  -0.00  -0.00    -0.00   0.00   0.00     0.00   0.00   0.00
  19   1     0.00   0.00  -0.00    -0.00  -0.00   0.00    -0.00   0.00   0.00
  20   1    -0.20  -0.18  -0.30    -0.47  -0.43  -0.61    -0.01  -0.04   0.00
  21   1    -0.02   0.09  -0.07     0.05  -0.05   0.08    -0.39   0.62  -0.62
  22   1    -0.60  -0.50   0.38     0.30   0.24  -0.15     0.10   0.06  -0.03
                     55                     56                     57
                        a                      a                      a 
 Frequencies --  3081.8884              3084.6096              3091.3469
 Red. masses --     1.7460                 1.7893                 1.8434
 Frc consts  --     0.0000                 0.0000                 0.0000
 IR Inten    --     1.2569                11.0805               106.0357
 Raman Activ --     0.0000                 0.0000                 0.0000
 Depolar     --     0.0000                 0.0000                 0.0000
 Atom AN      X      Y      Z        X      Y      Z        X      Y      Z
   1   8     0.00   0.00  -0.00    -0.00  -0.00   0.00     0.00  -0.00  -0.00
   2   8     0.00   0.00   0.00    -0.00  -0.00  -0.00     0.00   0.00   0.00
   3   8     0.00   0.00  -0.00     0.00  -0.00   0.00     0.00  -0.00  -0.00
   4   6     0.00  -0.00   0.00     0.00  -0.00  -0.00     0.00   0.00   0.00
   5   6     0.00   0.00   0.00    -0.00   0.00  -0.00     0.01   0.00   0.00
   6   6     0.04  -0.03   0.04    -0.09   0.07  -0.09     0.10  -0.09   0.11
   7   6     0.01   0.02  -0.01     0.02   0.06  -0.02     0.02   0.08  -0.03
   8   6    -0.00  -0.00   0.00     0.00   0.00  -0.00    -0.00  -0.00   0.00
   9   6     0.04   0.12  -0.05    -0.04  -0.13   0.05    -0.02  -0.05   0.02
  10   6     0.08  -0.07   0.08     0.10  -0.08   0.10     0.07  -0.06   0.07
  11   6    -0.14  -0.06  -0.05    -0.03  -0.02  -0.01     0.13   0.06   0.04
  12   6    -0.00   0.00  -0.00     0.00  -0.00   0.00    -0.00  -0.00  -0.00
  13   1    -0.00   0.00  -0.00     0.00   0.00   0.00    -0.00   0.00  -0.00
  14   1    -0.15   0.13  -0.16     0.31  -0.27   0.32    -0.37   0.32  -0.38
  15   1    -0.03  -0.10   0.04    -0.07  -0.22   0.08    -0.09  -0.28   0.10
  16   1    -0.14  -0.45   0.17     0.15   0.45  -0.17     0.05   0.16  -0.06
  17   1    -0.28   0.25  -0.30    -0.34   0.30  -0.35    -0.24   0.21  -0.25
  18   1     0.53   0.23   0.17     0.12   0.05   0.04    -0.44  -0.19  -0.14
  19   1    -0.00  -0.00   0.00     0.00  -0.00  -0.00    -0.00  -0.00   0.00
  20   1    -0.00  -0.00  -0.00    -0.00  -0.00  -0.00     0.00   0.00   0.00
  21   1     0.00  -0.00   0.00    -0.00   0.00  -0.00     0.00  -0.00   0.00
  22   1     0.00   0.00  -0.00    -0.00  -0.00   0.00     0.00   0.00  -0.00
                     58                     59                     60
                        a                      a                      a 
 Frequencies --  3097.8944              3103.9312              3373.2494
 Red. masses --     1.8719                 1.9126                 1.8790
 Frc consts  --     0.0000                 0.0000                 0.0000
 IR Inten    --   131.6073                32.0129               139.8907
 Raman Activ --     0.0000                 0.0000                 0.0000
 Depolar     --     0.0000                 0.0000                 0.0000
 Atom AN      X      Y      Z        X      Y      Z        X      Y      Z
   1   8     0.00  -0.00   0.00    -0.00   0.00  -0.00     0.13   0.04  -0.20
   2   8    -0.00  -0.00  -0.00     0.00  -0.00  -0.00    -0.00   0.00  -0.00
   3   8     0.00  -0.00   0.00     0.00   0.00  -0.00    -0.00   0.00   0.00
   4   6    -0.00   0.00  -0.00     0.00  -0.00  -0.00     0.00   0.01  -0.01
   5   6     0.00   0.00   0.00    -0.01  -0.00  -0.00    -0.00  -0.00  -0.00
   6   6    -0.07   0.06  -0.07    -0.04   0.04  -0.05    -0.00   0.00  -0.00
   7   6     0.05   0.17  -0.06    -0.05  -0.15   0.05    -0.00   0.00  -0.00
   8   6    -0.00   0.00  -0.00    -0.00   0.00   0.00    -0.00  -0.00   0.00
   9   6     0.04   0.14  -0.05     0.03   0.10  -0.04     0.00   0.00  -0.00
  10   6    -0.02   0.01  -0.02     0.08  -0.07   0.08     0.00  -0.00   0.00
  11   6     0.08   0.03   0.03     0.12   0.05   0.04     0.00   0.00   0.00
  12   6     0.00   0.00  -0.00     0.00  -0.00   0.00     0.00   0.00  -0.00
  13   1     0.00   0.00   0.00     0.00  -0.00   0.00     0.00  -0.00   0.01
  14   1     0.22  -0.19   0.23     0.15  -0.13   0.15     0.00  -0.00   0.00
  15   1    -0.18  -0.58   0.21     0.17   0.53  -0.19     0.00  -0.00   0.00
  16   1    -0.15  -0.46   0.17    -0.10  -0.32   0.12    -0.00  -0.00   0.00
  17   1     0.05  -0.04   0.05    -0.26   0.23  -0.27    -0.00   0.00  -0.00
  18   1    -0.28  -0.12  -0.09    -0.38  -0.16  -0.12    -0.00  -0.00  -0.00
  19   1     0.00  -0.00  -0.00     0.00   0.00  -0.00    -0.53  -0.18   0.80
  20   1    -0.00   0.00  -0.00    -0.00  -0.00  -0.00    -0.00  -0.00   0.00
  21   1     0.00  -0.00   0.00    -0.00   0.00  -0.00     0.00  -0.00   0.00
  22   1    -0.00  -0.00   0.00     0.00   0.00  -0.00    -0.00  -0.00   0.00
