      -----------------------------------------------------------      
     |                   =====================                   |     
     |                           x T B                           |     
     |                   =====================                   |     
     |                         S. Grimme                         |     
     |          Mulliken Center for Theoretical Chemistry        |     
     |                    University of Bonn                     |     
      -----------------------------------------------------------      

   * xtb version 6.4.1 (8725663466f2cbe4bcfeb424dbeae13262b6703d) compiled by 'salvador@Linux' on 07/21/2021

   xtb is free software: you can redistribute it and/or modify it under
   the terms of the GNU Lesser General Public License as published by
   the Free Software Foundation, either version 3 of the License, or
   (at your option) any later version.
   
   xtb is distributed in the hope that it will be useful,
   but WITHOUT ANY WARRANTY; without even the implied warranty of
   MERCHANTABILITY or FITNESS FOR A PARTICULAR PURPOSE.  See the
   GNU Lesser General Public License for more details.
   
   Cite this work as:
   * C. Bannwarth, E. Caldeweyher, S. Ehlert, A. Hansen, P. Pracht,
     J. Seibert, S. Spicher, S. Grimme, WIREs Comput. Mol. Sci., 2020, 11,
     e01493. DOI: 10.1002/wcms.1493
   
   for GFN2-xTB:
   * C. Bannwarth, S. Ehlert and S. Grimme., J. Chem. Theory Comput., 2019,
     15, 1652-1671. DOI: 10.1021/acs.jctc.8b01176
   for GFN1-xTB:
   * S. Grimme, C. Bannwarth, P. Shushkov, J. Chem. Theory Comput., 2017,
     13, 1989-2009. DOI: 10.1021/acs.jctc.7b00118
   for GFN0-xTB:
   * P. Pracht, E. Caldeweyher, S. Ehlert, S. Grimme, ChemRxiv, 2019, preprint.
     DOI: 10.26434/chemrxiv.8326202.v1
   for GFN-FF:
   * S. Spicher and S. Grimme, Angew. Chem. Int. Ed., 2020, 59, 15665-15673.
     DOI: 10.1002/anie.202004239
   
   for ALPB and GBSA implicit solvation:
   * S. Ehlert, M. Stahn, S. Spicher, S. Grimme, J. Chem. Theory Comput.,
     2021, 17, 4250-4261. DOI: 10.1021/acs.jctc.1c00471
   
   for DFT-D4:
   * E. Caldeweyher, C. Bannwarth and S. Grimme, J. Chem. Phys., 2017,
     147, 034112. DOI: 10.1063/1.4993215
   * E. Caldeweyher, S. Ehlert, A. Hansen, H. Neugebauer, S. Spicher,
     C. Bannwarth and S. Grimme, J. Chem. Phys., 2019, 150, 154122.
     DOI: 10.1063/1.5090222
   * E. Caldeweyher, J.-M. Mewes, S. Ehlert and S. Grimme, Phys. Chem. Chem. Phys.
     2020, 22, 8499-8512. DOI: 10.1039/D0CP00502A
   
   for sTDA-xTB:
   * S. Grimme and C. Bannwarth, J. Chem. Phys., 2016, 145, 054103.
     DOI: 10.1063/1.4959605
   
   in the mass-spec context:
   * V. Asgeirsson, C. Bauer and S. Grimme, Chem. Sci., 2017, 8, 4879.
     DOI: 10.1039/c7sc00601b
   * J. Koopman and S. Grimme, ACS Omega 2019, 4, 12, 15120-15133.
     DOI: 10.1021/acsomega.9b02011
   
   for metadynamics refer to:
   * S. Grimme, J. Chem. Theory Comput., 2019, 155, 2847-2862
     DOI: 10.1021/acs.jctc.9b00143
   
   for SPH calculations refer to:
   * S. Spicher and S. Grimme, J. Chem. Theory Comput., 2021, 17, 1701-1714
     DOI: 10.1021/acs.jctc.0c01306
   
   with help from (in alphabetical order)
   P. Atkinson, C. Bannwarth, F. Bohle, G. Brandenburg, E. Caldeweyher
   M. Checinski, S. Dohm, S. Ehlert, S. Ehrlich, I. Gerasimov, J. Koopman
   C. Lavigne, S. Lehtola, F. März, M. Müller, F. Musil, H. Neugebauer
   J. Pisarek, C. Plett, P. Pracht, J. Seibert, P. Shushkov, S. Spicher
   M. Stahn, M. Steiner, T. Strunk, J. Stückrath, T. Rose, and J. Unsleber
   
 * started run on 2021/07/28 at 15:26:50.555     

           -------------------------------------------------
          |                Calculation Setup                |
           -------------------------------------------------

          program call               : xtb crest_best.xyz --charge 0 --ohess --alpb water
          coordinate file            : crest_best.xyz
          number of atoms            :                    22
          number of electrons        :                    64
          charge                     :                     0
          spin                       :                   0.0
          first test random number   :      0.27766494154965

   ID    Z sym.   atoms
    1    8 O      1-3
    2    6 C      4-12
    3    1 H      13-22

           -------------------------------------------------
          |                 G F N 2 - x T B                 |
           -------------------------------------------------

        Reference                      10.1021/acs.jctc.8b01176
      * Hamiltonian:
        H0-scaling (s, p, d)           1.850000    2.230000    2.230000
        zeta-weighting                 0.500000
      * Dispersion:
        s8                             2.700000
        a1                             0.520000
        a2                             5.000000
        s9                             5.000000
      * Repulsion:
        kExp                           1.500000    1.000000
        rExp                           1.000000
      * Coulomb:
        alpha                          2.000000
        third order                    shell-resolved
        anisotropic                    true
        a3                             3.000000
        a5                             4.000000
        cn-shift                       1.200000
        cn-exp                         4.000000
        max-rad                        5.000000

      * Solvation model:               ALPB
        Solvent                        water
        Parameter file                 internal GFN2-xTB/ALPB
        Dielectric constant                8.0200E+01
        Reference state                gsolv [1 M gas/solution]
        Free energy shift                  1.0808E-03 Eh       6.7819E-01 kcal/mol
        Temperature                        2.9815E+02 K
        Density                            1.0000E+00 kg/L
        Solvent mass                       1.8000E+01 g/mol
        Interaction kernel             P16
        Born radius scaling (c1)           1.4744E+00
        Born radii integrator          GBOBC
        Born offset                        0.0000E+00 a0       0.0000E+00 AA
        H-bond correction              true
        Ion screening                  false
        Surface tension                    1.0000E-05 Eh       1.5569E+01 dyn/cm
        Grid points                               230 per atom

          ...................................................
          :                      SETUP                      :
          :.................................................:
          :  # basis functions                  58          :
          :  # atomic orbitals                  58          :
          :  # shells                           34          :
          :  # electrons                        64          :
          :  max. iterations                   250          :
          :  Hamiltonian                  GFN2-xTB          :
          :  restarted?                      false          :
          :  GBSA solvation                   true          :
          :  PC potential                    false          :
          :  electronic temp.          300.0000000     K    :
          :  accuracy                    1.0000000          :
          :  -> integral cutoff          0.2500000E+02      :
          :  -> integral neglect         0.1000000E-07      :
          :  -> SCF convergence          0.1000000E-05 Eh   :
          :  -> wf. convergence          0.1000000E-03 e    :
          :  Broyden damping             0.4000000          :
          ...................................................

 iter      E             dE          RMSdq      gap      omega  full diag
   1    -36.9946971 -0.369947E+02  0.462E+00    4.49       0.0  T
   2    -37.0387957 -0.440986E-01  0.250E+00    3.92       1.0  T
   3    -37.0387575  0.382106E-04  0.102E+00    4.24       1.0  T
   4    -37.0422029 -0.344541E-02  0.178E-01    4.02       1.0  T
   5    -37.0424386 -0.235691E-03  0.762E-02    4.01       1.0  T
   6    -37.0424679 -0.293761E-04  0.393E-02    4.01       1.0  T
   7    -37.0424735 -0.556849E-05  0.142E-02    4.01       1.5  T
   8    -37.0424742 -0.703246E-06  0.550E-03    4.01       3.9  T
   9    -37.0424744 -0.234300E-06  0.267E-03    4.01       8.0  T
  10    -37.0424745 -0.345863E-07  0.132E-03    4.01      16.2  T
  11    -37.0424745 -0.572548E-08  0.428E-04    4.01      49.9  T
  12    -37.0424745 -0.123432E-08  0.182E-04    4.01     117.2  T

   *** convergence criteria satisfied after 12 iterations ***

         #    Occupation            Energy/Eh            Energy/eV
      -------------------------------------------------------------
         1        2.0000           -0.7647670             -20.8104
       ...           ...                  ...                  ...
        26        2.0000           -0.4599347             -12.5155
        27        2.0000           -0.4470563             -12.1650
        28        2.0000           -0.4420589             -12.0290
        29        2.0000           -0.4253074             -11.5732
        30        2.0000           -0.4164159             -11.3313
        31        2.0000           -0.4084427             -11.1143
        32        2.0000           -0.4019647             -10.9380 (HOMO)
        33                         -0.2546308              -6.9289 (LUMO)
        34                         -0.2268699              -6.1734
        35                         -0.2234783              -6.0812
        36                         -0.0980260              -2.6674
        37                         -0.0158600              -0.4316
       ...                                ...                  ...
        58                          0.6601558              17.9638
      -------------------------------------------------------------
                  HL-Gap            0.1473338 Eh            4.0092 eV
             Fermi-level           -0.3282977 Eh           -8.9334 eV

 SCC (total)                   0 d,  0 h,  0 min,  0.026 sec
 SCC setup                      ...        0 min,  0.001 sec (  2.870%)
 Dispersion                     ...        0 min,  0.000 sec (  0.481%)
 classical contributions        ...        0 min,  0.000 sec (  0.144%)
 integral evaluation            ...        0 min,  0.003 sec ( 11.185%)
 iterations                     ...        0 min,  0.014 sec ( 55.513%)
 molecular gradient             ...        0 min,  0.008 sec ( 29.358%)
 printout                       ...        0 min,  0.000 sec (  0.417%)

         :::::::::::::::::::::::::::::::::::::::::::::::::::::
         ::                     SUMMARY                     ::
         :::::::::::::::::::::::::::::::::::::::::::::::::::::
         :: total energy             -36.569090289334 Eh    ::
         :: total w/o Gsasa/hb       -36.565731941450 Eh    ::
         :: gradient norm              0.000116088579 Eh/a0 ::
         :: HOMO-LUMO gap              4.009157263167 eV    ::
         ::.................................................::
         :: SCC energy               -37.042474478556 Eh    ::
         :: -> isotropic ES            0.080175333857 Eh    ::
         :: -> anisotropic ES         -0.001210888516 Eh    ::
         :: -> anisotropic XC          0.009246750438 Eh    ::
         :: -> dispersion             -0.018473592433 Eh    ::
         :: -> Gsolv                  -0.013151376737 Eh    ::
         ::    -> Gelec               -0.009793028853 Eh    ::
         ::    -> Gsasa                0.001460045415 Eh    ::
         ::    -> Ghb                 -0.005899152997 Eh    ::
         ::    -> Gshift               0.001080759698 Eh    ::
         :: repulsion energy           0.473238101644 Eh    ::
         :: add. restraining           0.000000000000 Eh    ::
         :: total charge               0.000000000000 e     ::
         :::::::::::::::::::::::::::::::::::::::::::::::::::::

      ----------------------------------------------------------- 
     |                   =====================                   |
     |                        A N C O P T                        |
     |                   =====================                   |
     |               Approximate Normal Coordinate               |
     |                Rational Function Optimizer                |
      ----------------------------------------------------------- 

          ...................................................
          :                      SETUP                      :
          :.................................................:
          :   optimization level            normal          :
          :   max. optcycles                   200          :
          :   ANC micro-cycles                  20          :
          :   degrees of freedom                60          :
          :.................................................:
          :   RF solver                   davidson          :
          :   write xtbopt.log                true          :
          :   linear?                        false          :
          :   energy convergence         0.5000000E-05 Eh   :
          :   grad. convergence          0.1000000E-02 Eh/α :
          :   maximium RF displ.         1.0000000          :
          :   Hlow (freq-cutoff)         0.1000000E-01      :
          :   Hmax (freq-cutoff)         5.0000000          :
          :   S6 in model hess.         20.0000000          :
          ...................................................

generating ANC from model Hessian ...
Using Lindh-Hessian (1995)
 Shifting diagonal of input Hessian by    9.1017817848275291E-003
 Lowest  eigenvalues of input Hessian
    0.000000    0.000000    0.000000    0.000000    0.000000    0.000000
    0.010000    0.010759    0.012967    0.014329    0.019077    0.020963
    0.023530    0.024832    0.031320    0.032985    0.035360    0.036948
 Highest eigenvalues
    1.620792    1.826221    1.901693    2.008339    2.022008    2.361313


........................................................................
.............................. CYCLE    1 ..............................
........................................................................
   1    -37.0424745 -0.370425E+02  0.837E-05    4.01       0.0  T
   2    -37.0424745 -0.223750E-10  0.532E-05    4.01     400.7  T
   3    -37.0424745 -0.375877E-11  0.331E-05    4.01     644.2  T
     SCC iter.                  ...        0 min,  0.004 sec
     gradient                   ...        0 min,  0.008 sec
 * total energy  :   -36.5690903 Eh     change       -0.1675104E-09 Eh
   gradient norm :     0.0001153 Eh/α   predicted     0.0000000E+00 (-100.00%)
   displ. norm   :     0.0044474 α      lambda       -0.2167987E-07
   maximum displ.:     0.0018884 α      in ANC's #3, #7, #6, ...

   *** GEOMETRY OPTIMIZATION CONVERGED AFTER 1 ITERATIONS ***

------------------------------------------------------------------------
 total energy gain   :        -0.0000000 Eh       -0.0000 kcal/mol
 total RMSD          :         0.0000001 a0        0.0000 Å
 total power (kW/mol):        -0.0000004 (step)   -0.0000 (real)
------------------------------------------------------------------------

 ANCopt (total)                0 d,  0 h,  0 min,  0.022 sec
 optimizer setup                ...        0 min,  0.000 sec (  0.241%)
 model hessian                  ...        0 min,  0.004 sec ( 19.555%)
 ANC generation                 ...        0 min,  0.001 sec (  4.248%)
 coordinate transformation      ...        0 min,  0.000 sec (  0.020%)
 single point calculation       ...        0 min,  0.015 sec ( 70.127%)
 optimization log               ...        0 min,  0.001 sec (  5.177%)
 hessian update                 ...        0 min,  0.000 sec (  0.005%)
 rational function              ...        0 min,  0.000 sec (  0.309%)

================
 final structure:
================
22
 xtb: 6.4.1 (8725663466f2cbe4bcfeb424dbeae13262b6703d)
O        -0.77125872660000   -2.26276109100000   -0.62188273340000
O        -1.85970061650000    1.09785476520000   -0.29564312700000
O        -2.26239677480000   -0.71829927250000    0.96528369460000
C        -0.65121228380000   -0.87805281090000   -0.79761321690000
C         0.70332812330000   -0.32488675610000   -0.37629887410000
C         1.10863911010000    0.92262060620000   -0.83409611220000
C         1.52537410780000   -1.04354356830000    0.47803979440000
C        -1.68951262270000   -0.15640393310000    0.05327807140000
C         2.32647387990000    1.44413379270000   -0.43662964080000
C         2.74656153330000   -0.52061950410000    0.86936564110000
C         3.14748885980000    0.72414011320000    0.41662423020000
C        -2.76140144220000    1.90667565840000    0.47439534270000
H        -0.82640009040000   -0.64490974850000   -1.85453899400000
H         0.46605427500000    1.48214711640000   -1.49681694250000
H         1.21371402870000   -2.01856437110000    0.81897237010000
H         2.63659966280000    2.41322894070000   -0.79602391130000
H         3.38218610480000   -1.08873126290000    1.53110247210000
H         4.09788279820000    1.13184017580000    0.72484677630000
H        -1.30345245680000   -2.41932043870000    0.17798289590000
H        -2.19465570700000    2.43225873770000    1.24212983320000
H        -3.20570150600000    2.61096461700000   -0.22304181760000
H        -3.52123499240000    1.27876434830000    0.93978136570000

 Bond Distances (Angstroems)
 ---------------------------
O1-C4=1.4010         O1-H19=0.9734        O2-C8=1.3130         O2-C12=1.4353        O3-C8=1.2148         C4-O1=1.4010         
C4-C5=1.5226         C4-C8=1.5241         C4-H13=1.0964        C5-C4=1.5226         C5-C6=1.3893         C5-C7=1.3864         
C6-C5=1.3893         C6-C9=1.3831         C6-H14=1.0794        C7-C5=1.3864         C7-C10=1.3849        C7-H15=1.0789        
C8-O2=1.3130         C8-O3=1.2148         C8-C4=1.5241         C9-C6=1.3831         C9-C11=1.3858        C9-H16=1.0791        
C10-C7=1.3849        C10-C11=1.3839       C10-H17=1.0792       C11-C9=1.3858        C11-C10=1.3839       C11-H18=1.0791       
C12-O2=1.4353        C12-H20=1.0894       C12-H21=1.0862       C12-H22=1.0900       H13-C4=1.0964        H14-C6=1.0794        
H15-C7=1.0789        H16-C9=1.0791        H17-C10=1.0792       H18-C11=1.0791       H19-O1=0.9734        H20-C12=1.0894       
H21-C12=1.0862       H22-C12=1.0900       
 C  H  Rav=1.0842 sigma=0.0062  Rmin=1.0789  Rmax=1.0964     9
 C  C  Rav=1.4200 sigma=0.0597  Rmin=1.3831  Rmax=1.5241     8
 O  H  Rav=0.9734 sigma=0.0000  Rmin=0.9734  Rmax=0.9734     1
 O  C  Rav=1.3410 sigma=0.0855  Rmin=1.2148  Rmax=1.4353     4

 selected bond angles (degree)
 --------------------
H19-O1-C4=107.99               C12-O2-C8=118.50               C5-C4-O1=113.62                C8-C4-O1=109.85                
C8-C4-C5=106.23                H13-C4-O1=108.51               H13-C4-C5=109.37               H13-C4-C8=109.19               
C6-C5-C4=119.64                C7-C5-C4=120.64                C7-C5-C6=119.70                C9-C6-C5=120.05                
H14-C6-C5=119.61               H14-C6-C9=120.34               C10-C7-C5=120.08               H15-C7-C5=119.47               
H15-C7-C10=120.44              O3-C8-O2=125.47                C4-C8-O2=113.10                C4-C8-O3=121.43                
C11-C9-C6=120.18               H16-C9-C6=119.73               H16-C9-C11=120.09              C11-C10-C7=120.18              
H17-C10-C7=119.59              H17-C10-C11=120.23             

 selected dihedral angles (degree)
 ---------------------------------
C5-C4-O1-H19=102.84           C8-C4-O1-H19=344.01           H13-C4-O1-H19=224.71          C6-C5-C4-O1=161.62            
C6-C5-C4-C8=282.51            C6-C5-C4-H13= 40.23           C7-C5-C4-O1=340.48            C7-C5-C4-C8=101.37            
C7-C5-C4-H13=219.09           C9-C6-C5-C4=178.79            C9-C6-C5-C7=359.92            H14-C6-C5-C4=359.06           
H14-C6-C5-C7=180.19           C10-C7-C5-C4=180.95           C10-C7-C5-C6=359.81           H15-C7-C5-C4=  2.09           
H15-C7-C5-C6=180.95           O3-C8-O2-C12=  2.08           C4-C8-O2-C12=183.19           O2-C8-C4-O1=195.62            
O2-C8-C4-C5= 72.34            O2-C8-C4-H13=314.50           O3-C8-C4-O1= 16.68            O3-C8-C4-C5=253.40            
O3-C8-C4-H13=135.56           C11-C9-C6-C5=  0.13           C11-C9-C6-H14=179.86          H16-C9-C6-C5=179.95           
H16-C9-C6-H14=359.67          C11-C10-C7-C5=  0.42          C11-C10-C7-H15=179.27         H17-C10-C7-C5=180.27          
H17-C10-C7-H15=359.13         
           -------------------------------------------------
          |                Final Singlepoint                |
           -------------------------------------------------

          ...................................................
          :                      SETUP                      :
          :.................................................:
          :  # basis functions                  58          :
          :  # atomic orbitals                  58          :
          :  # shells                           34          :
          :  # electrons                        64          :
          :  max. iterations                   250          :
          :  Hamiltonian                  GFN2-xTB          :
          :  restarted?                      false          :
          :  GBSA solvation                   true          :
          :  PC potential                    false          :
          :  electronic temp.          300.0000000     K    :
          :  accuracy                    1.0000000          :
          :  -> integral cutoff          0.2500000E+02      :
          :  -> integral neglect         0.1000000E-07      :
          :  -> SCF convergence          0.1000000E-05 Eh   :
          :  -> wf. convergence          0.1000000E-03 e    :
          :  Broyden damping             0.4000000          :
          ...................................................

 iter      E             dE          RMSdq      gap      omega  full diag
   1    -37.0424745 -0.370425E+02  0.830E-06    4.01       0.0  T
   2    -37.0424745 -0.319744E-12  0.579E-06    4.01    3682.4  T
   3    -37.0424745 -0.497380E-13  0.363E-06    4.01    5880.7  T

   *** convergence criteria satisfied after 3 iterations ***

         #    Occupation            Energy/Eh            Energy/eV
      -------------------------------------------------------------
         1        2.0000           -0.7647673             -20.8104
       ...           ...                  ...                  ...
        26        2.0000           -0.4599352             -12.5155
        27        2.0000           -0.4470567             -12.1650
        28        2.0000           -0.4420601             -12.0291
        29        2.0000           -0.4253086             -11.5732
        30        2.0000           -0.4164168             -11.3313
        31        2.0000           -0.4084445             -11.1143
        32        2.0000           -0.4019657             -10.9380 (HOMO)
        33                         -0.2546308              -6.9289 (LUMO)
        34                         -0.2268716              -6.1735
        35                         -0.2234793              -6.0812
        36                         -0.0980275              -2.6675
        37                         -0.0158608              -0.4316
       ...                                ...                  ...
        58                          0.6601544              17.9637
      -------------------------------------------------------------
                  HL-Gap            0.1473349 Eh            4.0092 eV
             Fermi-level           -0.3282982 Eh           -8.9334 eV

 SCC (total)                   0 d,  0 h,  0 min,  0.015 sec
 SCC setup                      ...        0 min,  0.001 sec (  4.725%)
 Dispersion                     ...        0 min,  0.000 sec (  0.579%)
 classical contributions        ...        0 min,  0.000 sec (  0.241%)
 integral evaluation            ...        0 min,  0.003 sec ( 18.649%)
 iterations                     ...        0 min,  0.004 sec ( 25.124%)
 molecular gradient             ...        0 min,  0.008 sec ( 49.961%)
 printout                       ...        0 min,  0.000 sec (  0.666%)

         :::::::::::::::::::::::::::::::::::::::::::::::::::::
         ::                     SUMMARY                     ::
         :::::::::::::::::::::::::::::::::::::::::::::::::::::
         :: total energy             -36.569090289509 Eh    ::
         :: total w/o Gsasa/hb       -36.565731914350 Eh    ::
         :: gradient norm              0.000115768015 Eh/a0 ::
         :: HOMO-LUMO gap              4.009187658288 eV    ::
         ::.................................................::
         :: SCC energy               -37.042474478731 Eh    ::
         :: -> isotropic ES            0.080175312552 Eh    ::
         :: -> anisotropic ES         -0.001210587931 Eh    ::
         :: -> anisotropic XC          0.009246760177 Eh    ::
         :: -> dispersion             -0.018473574778 Eh    ::
         :: -> Gsolv                  -0.013151138594 Eh    ::
         ::    -> Gelec               -0.009792763434 Eh    ::
         ::    -> Gsasa                0.001460045415 Eh    ::
         ::    -> Ghb                 -0.005899180272 Eh    ::
         ::    -> Gshift               0.001080759698 Eh    ::
         :: repulsion energy           0.473238101644 Eh    ::
         :: add. restraining           0.000000000000 Eh    ::
         :: total charge              -0.000000000000 e     ::
         :::::::::::::::::::::::::::::::::::::::::::::::::::::

           ------------------------------------------------- 
          |                Numerical Hessian                |
           ------------------------------------------------- 
step length          :   0.00500
SCC accuracy         :   0.30000
Hessian scale factor :   1.00000
frozen atoms in %    :   0.00000    0
RMS gradient         :   0.00012
estimated CPU  time      0.75 min
estimated wall time      0.04 min

writing file <hessian>.

 projected vibrational frequencies (cm⁻¹)
eigval :       -0.00    -0.00     0.00     0.00     0.00     0.00
eigval :       29.00    32.89    54.49    69.58   162.37   184.05
eigval :      221.93   245.22   315.99   342.25   355.02   370.76
eigval :      443.38   478.38   573.15   589.86   651.85   665.09
eigval :      717.00   764.81   830.96   875.66   899.67   917.27
eigval :      926.60   929.58   979.67   988.24  1081.18  1096.23
eigval :     1102.30  1123.29  1124.89  1142.92  1177.79  1180.39
eigval :     1197.31  1213.22  1230.56  1277.68  1305.50  1325.21
eigval :     1369.68  1423.43  1435.46  1437.88  1466.88  1592.59
eigval :     1595.91  1694.55  2914.21  3001.78  3003.51  3045.57
eigval :     3081.89  3084.61  3091.35  3097.89  3103.93  3373.25
           -------------------------------------------------
          |                Property Printout                |
           -------------------------------------------------

    * Orbital Energies and Occupations

         #    Occupation            Energy/Eh            Energy/eV
      -------------------------------------------------------------
         1        2.0000           -0.7647673             -20.8104
       ...           ...                  ...                  ...
        20        2.0000           -0.4941894             -13.4476
        21        2.0000           -0.4909370             -13.3591
        22        2.0000           -0.4903108             -13.3420
        23        2.0000           -0.4832529             -13.1500
        24        2.0000           -0.4811042             -13.0915
        25        2.0000           -0.4769472             -12.9784
        26        2.0000           -0.4599352             -12.5155
        27        2.0000           -0.4470567             -12.1650
        28        2.0000           -0.4420602             -12.0291
        29        2.0000           -0.4253086             -11.5732
        30        2.0000           -0.4164168             -11.3313
        31        2.0000           -0.4084445             -11.1143
        32        2.0000           -0.4019657             -10.9380 (HOMO)
        33                         -0.2546308              -6.9289 (LUMO)
        34                         -0.2268716              -6.1735
        35                         -0.2234793              -6.0812
        36                         -0.0980275              -2.6675
        37                         -0.0158608              -0.4316
        38                          0.0484960               1.3196
        39                          0.0877889               2.3889
        40                          0.1228462               3.3428
        41                          0.1257507               3.4219
        42                          0.1372422               3.7345
        43                          0.1467495               3.9933
       ...                                ...                  ...
        58                          0.6601543              17.9637
      -------------------------------------------------------------
                  HL-Gap            0.1473349 Eh            4.0092 eV
             Fermi-level           -0.3282982 Eh           -8.9334 eV

     #   Z          covCN         q      C6AA      α(0)
     1   8 O        1.655    -0.483    22.524     6.407
     2   8 O        1.703    -0.251    18.165     5.754
     3   8 O        0.856    -0.476    23.256     6.466
     4   6 C        3.732     0.089    19.199     6.254
     5   6 C        2.979    -0.004    28.110     8.697
     6   6 C        2.922    -0.043    29.067     8.841
     7   6 C        2.922    -0.034    28.848     8.808
     8   6 C        2.723     0.353    21.007     7.503
     9   6 C        2.920    -0.033    28.826     8.804
    10   6 C        2.920    -0.034    28.846     8.808
    11   6 C        2.920    -0.036    28.889     8.814
    12   6 C        3.648    -0.000    20.912     6.570
    13   1 H        0.924     0.072     2.063     2.246
    14   1 H        0.926     0.046     2.372     2.408
    15   1 H        0.926     0.049     2.330     2.387
    16   1 H        0.926     0.050     2.314     2.379
    17   1 H        0.926     0.047     2.358     2.401
    18   1 H        0.926     0.048     2.343     2.393
    19   1 H        0.804     0.352     0.585     1.201
    20   1 H        0.925     0.093     1.849     2.127
    21   1 H        0.925     0.110     1.696     2.036
    22   1 H        0.925     0.084     1.935     2.175

 Mol. C6AA /au·bohr⁶  :       5366.691292
 Mol. C8AA /au·bohr⁸  :     126342.691849
 Mol. α(0) /au        :        113.480304


Wiberg/Mayer (AO) data.
largest (>0.10) Wiberg bond orders for each atom

 ---------------------------------------------------------------------------
     #   Z sym  total        # sym  WBO       # sym  WBO       # sym  WBO
 ---------------------------------------------------------------------------
     1   8 O    1.938 --     4 C    1.010    19 H    0.846
     2   8 O    2.341 --     8 C    1.198    12 C    0.923     3 O    0.173
     3   8 O    1.990 --     8 C    1.678     2 O    0.173
     4   6 C    3.958 --     1 O    1.010     5 C    0.949    13 H    0.940
                             8 C    0.935
     5   6 C    3.983 --     7 C    1.421     6 C    1.406     4 C    0.949
                            11 C    0.108
     6   6 C    3.991 --     9 C    1.451     5 C    1.406    14 H    0.967
                            10 C    0.113
     7   6 C    3.991 --    10 C    1.436     5 C    1.421    15 H    0.966
                             9 C    0.110
     8   6 C    3.913 --     3 O    1.678     2 O    1.198     4 C    0.935
     9   6 C    3.991 --     6 C    1.451    11 C    1.432    16 H    0.969
                             7 C    0.110
    10   6 C    3.991 --    11 C    1.445     7 C    1.436    17 H    0.970
                             6 C    0.113
    11   6 C    3.989 --    10 C    1.445     9 C    1.432    18 H    0.970
                             5 C    0.108
    12   6 C    3.887 --    22 H    0.977    21 H    0.973    20 H    0.972
                             2 O    0.923
    13   1 H    0.995 --     4 C    0.940
    14   1 H    0.998 --     6 C    0.967
    15   1 H    0.998 --     7 C    0.966
    16   1 H    0.997 --     9 C    0.969
    17   1 H    0.997 --    10 C    0.970
    18   1 H    0.997 --    11 C    0.970
    19   1 H    0.876 --     1 O    0.846
    20   1 H    0.991 --    12 C    0.972
    21   1 H    0.988 --    12 C    0.973
    22   1 H    0.993 --    12 C    0.977
 ---------------------------------------------------------------------------

Topologies differ in total number of bonds
Writing topology from bond orders to xtbtopo.mol

molecular dipole:
                 x           y           z       tot (Debye)
 q only:        0.143       1.483      -0.015
   full:        0.004       1.532       0.039       3.895
molecular quadrupole (traceless):
                xx          xy          yy          xz          yz          zz
 q only:        3.435      -7.821       0.987       2.557      -1.067      -4.422
  q+dip:        4.705      -6.027      -0.506       5.576      -3.800      -4.199
   full:        4.256      -6.824      -0.734       4.212      -2.080      -3.522

           -------------------------------------------------
          |                Geometry Summary                 |
           -------------------------------------------------

      molecular mass/u    :      166.1742454
   center of mass at/Å    :       -0.0000102      -0.0000021       0.0000005
  moments of inertia/u·Å² :        0.3289118E+03   0.7398177E+03   0.9255591E+03
rotational constants/cm⁻¹ :        0.5125274E-01   0.2278620E-01   0.1821346E-01

 * 20 selected distances

     #   Z          #   Z                                           value/Å
     1   8 O        4   6 C                                       1.4009673
     5   6 C        6   6 C                                       1.3892912
     5   6 C        7   6 C                                       1.3864061
     2   8 O        8   6 C                                       1.3129641
     3   8 O        8   6 C                                       1.2147744
     6   6 C        9   6 C                                       1.3831403
     7   6 C       10   6 C                                       1.3848770
     9   6 C       11   6 C                                       1.3858206
    10   6 C       11   6 C                                       1.3838873
     2   8 O       12   6 C                                       1.4353449 (max)
     4   6 C       13   1 H                                       1.0964208
     6   6 C       14   1 H                                       1.0794369
     7   6 C       15   1 H                                       1.0789034
     9   6 C       16   1 H                                       1.0791143
    10   6 C       17   1 H                                       1.0791966
    11   6 C       18   1 H                                       1.0791057
     1   8 O       19   1 H                                       0.9734095 (min)
    12   6 C       20   1 H                                       1.0894285
    12   6 C       21   1 H                                       1.0862063
    12   6 C       22   1 H                                       1.0900476

 * 4 distinct bonds (by element types)

   Z      Z             #   av. dist./Å        max./Å        min./Å
   1 H    6 C           9     1.0842067     1.0964208     1.0789034
   6 C    6 C           6     1.3855704     1.3892912     1.3831403
   1 H    8 O           1     0.9734095     0.9734095     0.9734095
   6 C    8 O           4     1.3410127     1.4353449     1.2147744

           -------------------------------------------------
          |               Frequency Printout                |
           -------------------------------------------------
 projected vibrational frequencies (cm⁻¹)
eigval :       -0.00    -0.00     0.00     0.00     0.00     0.00
eigval :       29.00    32.89    54.49    69.58   162.37   184.05
eigval :      221.93   245.22   315.99   342.25   355.02   370.76
eigval :      443.38   478.38   573.15   589.86   651.85   665.09
eigval :      717.00   764.81   830.96   875.66   899.67   917.27
eigval :      926.60   929.58   979.67   988.24  1081.18  1096.23
eigval :     1102.30  1123.29  1124.89  1142.92  1177.79  1180.39
eigval :     1197.31  1213.22  1230.56  1277.68  1305.50  1325.21
eigval :     1369.68  1423.43  1435.46  1437.88  1466.88  1592.59
eigval :     1595.91  1694.55  2914.21  3001.78  3003.51  3045.57
eigval :     3081.89  3084.61  3091.35  3097.89  3103.93  3373.25
 reduced masses (amu)
   1: 12.40   2: 12.59   3: 12.27   4: 11.67   5: 12.01   6: 12.19   7: 10.42   8:  1.64
   9: 14.78  10: 10.44  11: 11.14  12: 12.17  13: 11.95  14: 11.54  15: 13.06  16:  3.29
  17: 11.82  18:  8.75  19: 11.13  20: 11.05  21: 11.86  22: 11.37  23: 10.97  24: 11.33
  25:  7.83  26:  7.68  27: 10.75  28:  3.33  29:  4.22  30: 10.27  31:  4.20  32:  3.04
  33: 11.85  34: 11.50  35:  7.19  36:  8.30  37:  4.85  38:  5.10  39:  5.78  40:  5.66
  41:  1.78  42:  6.11  43:  4.18  44:  6.85  45:  8.32  46:  3.59  47:  5.94  48: 10.43
  49:  2.69  50:  1.58  51:  8.84  52:  1.62  53:  8.88  54: 11.55  55: 11.49  56: 13.33
  57:  1.74  58:  1.89  59:  1.46  60:  1.82  61:  1.75  62:  1.79  63:  1.84  64:  1.87
  65:  1.91  66:  1.88
 IR intensities (km·mol⁻¹)
   1:  0.06   2:  0.52   3:  0.73   4:  0.65   5:  0.42   6:  0.30   7:  0.94   8:  0.25
   9:  0.92  10:  1.00  11:  6.72  12:  1.68  13: 11.46  14:  4.70  15: 55.52  16:147.40
  17:  7.40  18:  3.43  19:  4.82  20: 12.59  21: 16.73  22:  3.51  23: 15.63  24:  8.96
  25: 31.92  26: 12.80  27:  6.68  28:  0.17  29:  1.77  30: 21.66  31:  0.59  32:  0.03
Molecule has no symmetry elements
It seems to be the C1 point group
  33: 20.44  34: 18.03  35:  8.37  36:154.15  37: 15.74  38: 79.84  39: 50.11  40: 27.81
  41:  6.66  42:104.26  43:116.18  44:136.56  45:116.14  46: 13.38  47: 50.53  48:  9.12
  49: 31.48  50: 16.63  51:  0.14  52:  7.49  53:  2.51  54:  0.11  55: 10.99  56:769.59
  57: 29.70  58:  8.05  59: 10.02  60:  0.93  61:  1.26  62: 11.08  63:106.04  64:131.61
  65: 32.01  66:139.89
 Raman intensities (amu)
   1:  0.00   2:  0.00   3:  0.00   4:  0.00   5:  0.00   6:  0.00   7:  0.00   8:  0.00
   9:  0.00  10:  0.00  11:  0.00  12:  0.00  13:  0.00  14:  0.00  15:  0.00  16:  0.00
  17:  0.00  18:  0.00  19:  0.00  20:  0.00  21:  0.00  22:  0.00  23:  0.00  24:  0.00
  25:  0.00  26:  0.00  27:  0.00  28:  0.00  29:  0.00  30:  0.00  31:  0.00  32:  0.00
  33:  0.00  34:  0.00  35:  0.00  36:  0.00  37:  0.00  38:  0.00  39:  0.00  40:  0.00
  41:  0.00  42:  0.00  43:  0.00  44:  0.00  45:  0.00  46:  0.00  47:  0.00  48:  0.00
  49:  0.00  50:  0.00  51:  0.00  52:  0.00  53:  0.00  54:  0.00  55:  0.00  56:  0.00
  57:  0.00  58:  0.00  59:  0.00  60:  0.00  61:  0.00  62:  0.00  63:  0.00  64:  0.00
  65:  0.00  66:  0.00
 output can be read by thermo (or use thermo option).
 writing <g98.out> molden fake output.
 recommended (thermochemical) frequency scaling factor: 1.0
           -------------------------------------------------
          |             Thermodynamic Functions             |
           -------------------------------------------------

c1  symmetry found (for desy threshold:  0.10E+00) used in thermo

          ...................................................
          :                      SETUP                      :
          :.................................................:
          :  # frequencies                          60      :
          :  # imaginary freq.                       0      :
          :  linear?                             false      :
          :  only rotor calc.                    false      :
          :  symmetry                               c1      :
          :  rotational number                       1      :
          :  scaling factor                  1.0000000      :
          :  rotor cutoff                   50.0000000 cm⁻¹ :
          :  imag. cutoff                  -20.0000000 cm⁻¹ :
          :.................................................:

    mode    ω/cm⁻¹     T·S(HO)/kcal·mol⁻¹    T·S(FR)/kcal·mol⁻¹   T·S(vib)
   ------------------------------------------------------------------------
       1     29.00    -1.75802 ( 10.17%)    -1.21763 ( 89.83%)    -1.27259
       2     32.89    -1.68373 ( 15.76%)    -1.18044 ( 84.24%)    -1.25978
       3     54.49    -1.38561 ( 58.52%)    -1.03093 ( 41.48%)    -1.23848
       4     69.58    -1.24182 ( 78.95%)    -0.95853 ( 21.05%)    -1.18219
       5    162.37    -0.75193 ( 99.11%)    -0.70757 (  0.89%)    -0.75154
       6    184.05    -0.68185 ( 99.46%)    -0.67045 (  0.54%)    -0.68179
       7    221.93    -0.57938 ( 99.74%)    -0.61501 (  0.26%)    -0.57947
       8    245.22    -0.52615 ( 99.83%)    -0.58546 (  0.17%)    -0.52625
   ------------------------------------------------------------------------

   temp. (K)  partition function   enthalpy   heat capacity  entropy
                                   cal/mol     cal/K/mol   cal/K/mol   J/K/mol
 298.15  VIB  0.241E+05             5700.675     37.269     35.428
         ROT  0.115E+07              888.752      2.981     30.707
         INT  0.276E+11             6589.427     40.250     66.136
         TR   0.207E+28             1481.254      4.968     41.213
         TOT                        8070.6808    45.2177   107.3489   449.1480

       T/K    H(0)-H(T)+PV         H(T)/Eh          T*S/Eh         G(T)/Eh
   ------------------------------------------------------------------------
    298.15    0.128614E-01    0.181463E+00    0.510049E-01    0.130458E+00
   ------------------------------------------------------------------------

         :::::::::::::::::::::::::::::::::::::::::::::::::::::
         ::                  THERMODYNAMIC                  ::
         :::::::::::::::::::::::::::::::::::::::::::::::::::::
         :: total free energy         -36.438632160027 Eh   ::
         ::.................................................::
         :: total energy              -36.569090288006 Eh   ::
         :: zero point energy           0.168601627532 Eh   ::
         :: G(RRHO) w/o ZPVE           -0.038143499553 Eh   ::
         :: G(RRHO) contrib.            0.130458127979 Eh   ::
         :::::::::::::::::::::::::::::::::::::::::::::::::::::

optimized geometry written to: xtbopt.xyz


           -------------------------------------------------
          | TOTAL ENERGY              -36.569090288006 Eh   |
          | TOTAL ENTHALPY            -36.387627211918 Eh   |
          | TOTAL FREE ENERGY         -36.438632160027 Eh   |
          | GRADIENT NORM               0.000115756280 Eh/α |
          | HOMO-LUMO GAP               4.009187465612 eV   |
           -------------------------------------------------

------------------------------------------------------------------------
 * finished run on 2021/07/28 at 15:26:52.912     
------------------------------------------------------------------------
 total:
 * wall-time:     0 d,  0 h,  0 min,  2.357 sec
 *  cpu-time:     0 d,  0 h,  0 min, 46.841 sec
 * ratio c/w:    19.872 speedup
 SCF:
 * wall-time:     0 d,  0 h,  0 min,  0.026 sec
 *  cpu-time:     0 d,  0 h,  0 min,  0.460 sec
 * ratio c/w:    17.733 speedup
 ANC optimizer:
 * wall-time:     0 d,  0 h,  0 min,  0.037 sec
 *  cpu-time:     0 d,  0 h,  0 min,  0.794 sec
 * ratio c/w:    21.365 speedup
 analytical hessian:
 * wall-time:     0 d,  0 h,  0 min,  2.284 sec
 *  cpu-time:     0 d,  0 h,  0 min, 45.500 sec
 * ratio c/w:    19.924 speedup

