22
 energy: -36.569090289502 gnorm: 0.000115754735 xtb: 6.4.1 (8725663466f2cbe4bcfeb424dbeae13262b6703d)
O        -0.77125872660000   -2.26276109100000   -0.62188273340000
O        -1.85970061650000    1.09785476520000   -0.29564312700000
O        -2.26239677480000   -0.71829927250000    0.96528369460000
C        -0.65121228380000   -0.87805281090000   -0.79761321690000
C         0.70332812330000   -0.32488675610000   -0.37629887410000
C         1.10863911010000    0.92262060620000   -0.83409611220000
C         1.52537410780000   -1.04354356830000    0.47803979440000
C        -1.68951262270000   -0.15640393310000    0.05327807140000
C         2.32647387990000    1.44413379270000   -0.43662964080000
C         2.74656153330000   -0.52061950410000    0.86936564110000
C         3.14748885980000    0.72414011320000    0.41662423020000
C        -2.76140144220000    1.90667565840000    0.47439534270000
H        -0.82640009040000   -0.64490974850000   -1.85453899400000
H         0.46605427500000    1.48214711640000   -1.49681694250000
H         1.21371402870000   -2.01856437110000    0.81897237010000
H         2.63659966280000    2.41322894070000   -0.79602391130000
H         3.38218610480000   -1.08873126290000    1.53110247210000
H         4.09788279820000    1.13184017580000    0.72484677630000
H        -1.30345245680000   -2.41932043870000    0.17798289590000
H        -2.19465570700000    2.43225873770000    1.24212983320000
H        -3.20570150600000    2.61096461700000   -0.22304181760000
H        -3.52123499240000    1.27876434830000    0.93978136570000
