|===============================================================================
|
|  DFTB+ release 22.1
|
|  Copyright (C) 2006 - 2022  DFTB+ developers group
|
|===============================================================================
|
|  When publishing results obtained with DFTB+, please cite the following
|  reference:
|
|  * DFTB+, a software package for efficient approximate density functional
|    theory based atomistic simulations, J. Chem. Phys. 152, 124101 (2020).
|    [doi: 10.1063/1.5143190]
|
|  You should also cite additional publications crediting the parametrization
|  data you use. Please consult the documentation of the SK-files for the
|  references.
|
|===============================================================================

Reading input file 'dftb_in.hsd'
Parser version: 11

--------------------------------------------------------------------------------


Processed input in HSD format written to 'dftb_pin.hsd'

Starting initialization...
--------------------------------------------------------------------------------
WARNING!
-> Dipole printed for extended system : value printed is not well defined
MPI processes:               1
OpenMP threads:              6
BLACS orbital grid size:     1 x 1
BLACS atom grid size:        1 x 1
Chosen random seed:          13200240
Mode:                        Static calculation
Self consistent charges:     Yes
SCC-tolerance:                 0.100000E-04
Max. scc iterations:                    100
Shell resolved Hubbard:      Yes
Spin polarisation:           No
Nr. of up electrons:           532.000000
Nr. of down electrons:         532.000000
Periodic boundaries:         Yes
Electronic solver:           Relatively robust
Mixer:                       Broyden mixer
Mixing parameter:                  0.200000
Maximal SCC-cycles:                     100
Nr. of chrg. vec. in memory:            100
tblite library version:      0.2.1
-> parametrization:          GFN2-xTB
-> repulsion:                Yes
-> dispersion:               Yes
-> halogen bonding:          No
-> electrostatics:           Yes
   -> isotropic:             Yes
   -> anisotropic:           Yes
   -> third-order:           Yes
Electronic temperature:              0.950045E-03 H      0.258520E-01 eV
Initial charges:             Set automatically (system chrg:   0.000E+00)
Included shells:             C:  s, p
                             H:  s
                             N:  s, p
                            Zn:  s, p
                             O:  s, p
                             S:  s, p, d
                             K:  s, p
K-points and weights:           1:  0.250000  0.250000  0.250000     0.250000
                                2:  0.250000  0.250000  0.750000     0.250000
                                3:  0.250000  0.750000  0.250000     0.250000
                                4:  0.250000  0.750000  0.750000     0.250000

K-points in absolute space:     1:  0.007786  0.007786  0.007786
                                2:  0.007786  0.007786  0.023358
                                3:  0.007786  0.023358  0.007786
                                4:  0.007786  0.023358  0.023358

Extra options:
                             Mulliken analysis
Force type                   original
                             Eigenvector printing

--------------------------------------------------------------------------------

***  Geometry step: 0

 iSCC Total electronic   Diff electronic      SCC error    
    1    0.00000000E+00    0.00000000E+00    0.27049580E+01
    2   -0.58066079E+03   -0.58066079E+03    0.21251693E+01
    3   -0.58555740E+03   -0.48966087E+01    0.22498291E+01
    4   -0.58756762E+03   -0.20102198E+01    0.12475104E+01
    5   -0.58748211E+03    0.85510790E-01    0.85279699E+00
    6   -0.58767089E+03   -0.18877873E+00    0.38317481E+00
    7   -0.58774392E+03   -0.73026885E-01    0.30320426E+00
    8   -0.58775193E+03   -0.80128019E-02    0.16267993E+00
    9   -0.58775537E+03   -0.34426630E-02    0.87832865E-01
   10   -0.58775838E+03   -0.30126287E-02    0.52697976E-01
   11   -0.58775870E+03   -0.31970775E-03    0.34407517E-01
   12   -0.58775943E+03   -0.72628941E-03    0.24878100E-01
   13   -0.58775956E+03   -0.13007940E-03    0.12548219E-01
   14   -0.58775959E+03   -0.25171375E-04    0.83998414E-02
   15   -0.58775960E+03   -0.10004525E-04    0.51017334E-02
   16   -0.58775960E+03   -0.86906621E-05    0.32541422E-02
   17   -0.58775960E+03   -0.47450897E-06    0.21920110E-02
   18   -0.58775960E+03    0.41888040E-06    0.72954808E-03
   19   -0.58775960E+03   -0.80579628E-06    0.36142899E-03
   20   -0.58775960E+03   -0.68636155E-07    0.15149132E-03
   21   -0.58775960E+03   -0.89780769E-08    0.88770010E-04
   22   -0.58775960E+03   -0.73805495E-09    0.54634199E-04
   23   -0.58775960E+03    0.41063686E-09    0.41711821E-04
   24   -0.58775960E+03   -0.58616934E-09    0.22517272E-04
   25   -0.58775960E+03   -0.27284841E-10    0.11210833E-04
   26   -0.58775960E+03   -0.12391865E-10    0.86439264E-05

Total Energy:                     -587.7596047080 H       -15993.7526 eV
Extrapolated to 0K:               -587.7596047080 H       -15993.7526 eV
Total Mermin free energy:         -587.7596047080 H       -15993.7526 eV
Force related energy:             -587.7596047080 H       -15993.7526 eV

Volume:                              0.331019E+05 au^3   0.490520E+04 A^3
Pressure:                           -0.168813E-05 au    -0.496666E+08 Pa
>> Charges saved for restart in charges.dat

total energy  -5.8775960E+02 H       energy change -5.8775960E+02 H
gradient norm  9.8747566E-02 H/a0    max. gradient  2.6182980E-02 H/a0
step length    0.0000000E+00 a0      max. step      0.0000000E+00 a0

--------------------------------------------------------------------------------

***  Geometry step: 1

 iSCC Total electronic   Diff electronic      SCC error    
    1   -0.58775960E+03    0.00000000E+00    0.12973292E+00
    2   -0.58776634E+03   -0.67369253E-02    0.45632125E-01
    3   -0.58776670E+03   -0.35867318E-03    0.24812033E-01
    4   -0.58776674E+03   -0.37085629E-04    0.13401965E-01
    5   -0.58776675E+03   -0.10978924E-04    0.74884632E-02
    6   -0.58776675E+03   -0.19986510E-05    0.23464473E-02
    7   -0.58776675E+03   -0.43898024E-06    0.13128468E-02
    8   -0.58776675E+03   -0.96701456E-07    0.88999373E-03
    9   -0.58776675E+03   -0.31167474E-07    0.55553971E-03
   10   -0.58776675E+03   -0.86988621E-08    0.32644835E-03
   11   -0.58776675E+03   -0.35978474E-08    0.16584811E-03
   12   -0.58776675E+03   -0.86288310E-09    0.70549696E-04
   13   -0.58776675E+03   -0.31207037E-09    0.33488277E-04
   14   -0.58776675E+03   -0.82877705E-10    0.24387373E-04
   15   -0.58776675E+03   -0.22055247E-10    0.15504960E-04
   16   -0.58776675E+03   -0.15461410E-10    0.94695846E-05

Total Energy:                     -587.7667509501 H       -15993.9471 eV
Extrapolated to 0K:               -587.7667509501 H       -15993.9471 eV
Total Mermin free energy:         -587.7667509501 H       -15993.9471 eV
Force related energy:             -587.7667509501 H       -15993.9471 eV

Volume:                              0.331019E+05 au^3   0.490520E+04 A^3
Pressure:                           -0.781974E-05 au    -0.230065E+09 Pa
>> Charges saved for restart in charges.dat

total energy  -5.8776675E+02 H       energy change -7.1462421E-03 H
gradient norm  5.2362757E-02 H/a0    max. gradient  1.3230040E-02 H/a0
step length    9.7803004E-02 a0      max. step      2.5932529E-02 a0

--------------------------------------------------------------------------------

***  Geometry step: 2

 iSCC Total electronic   Diff electronic      SCC error    
    1   -0.58776675E+03    0.00000000E+00    0.89151990E-01
    2   -0.58777003E+03   -0.32755925E-02    0.32376811E-01
    3   -0.58777030E+03   -0.27551331E-03    0.14291225E-01
    4   -0.58777033E+03   -0.23263358E-04    0.91863808E-02
    5   -0.58777033E+03   -0.73879413E-05    0.39740721E-02
    6   -0.58777033E+03   -0.22117374E-05    0.21683021E-02
    7   -0.58777034E+03   -0.34091545E-06    0.14591796E-02
    8   -0.58777034E+03   -0.12131818E-06    0.95382759E-03
    9   -0.58777034E+03   -0.29733997E-07    0.55725337E-03
   10   -0.58777034E+03   -0.13787599E-07    0.28855398E-03
   11   -0.58777034E+03   -0.36448000E-08    0.14038876E-03
   12   -0.58777034E+03   -0.76670403E-09    0.62103176E-04
   13   -0.58777034E+03   -0.20645530E-09    0.26759583E-04
   14   -0.58777034E+03   -0.61277206E-10    0.18566100E-04
   15   -0.58777034E+03   -0.22851054E-10    0.12203761E-04
   16   -0.58777034E+03   -0.92086339E-11    0.86979523E-05

Total Energy:                     -587.7703354294 H       -15994.0446 eV
Extrapolated to 0K:               -587.7703354294 H       -15994.0446 eV
Total Mermin free energy:         -587.7703354294 H       -15994.0446 eV
Force related energy:             -587.7703354294 H       -15994.0446 eV

Volume:                              0.331019E+05 au^3   0.490520E+04 A^3
Pressure:                           -0.861330E-05 au    -0.253412E+09 Pa
>> Charges saved for restart in charges.dat

total energy  -5.8777034E+02 H       energy change -3.5844793E-03 H
gradient norm  4.0348444E-02 H/a0    max. gradient  1.2329710E-02 H/a0
step length    1.0090126E-01 a0      max. step      2.4247060E-02 a0

--------------------------------------------------------------------------------

***  Geometry step: 3

 iSCC Total electronic   Diff electronic      SCC error    
    1   -0.58777034E+03    0.00000000E+00    0.13506650E+00
    2   -0.58777305E+03   -0.27104207E-02    0.28185780E-01
    3   -0.58777318E+03   -0.13539139E-03    0.10741186E-01
    4   -0.58777320E+03   -0.15563102E-04    0.86264727E-02
    5   -0.58777320E+03   -0.45727201E-05    0.46440268E-02
    6   -0.58777320E+03   -0.17793506E-05    0.20604874E-02
    7   -0.58777320E+03   -0.30163608E-06    0.14336936E-02
    8   -0.58777320E+03   -0.10402755E-06    0.90192909E-03
    9   -0.58777320E+03   -0.29210128E-07    0.54325492E-03
   10   -0.58777320E+03   -0.91388301E-08    0.27665671E-03
   11   -0.58777320E+03   -0.48075890E-08    0.13783052E-03
   12   -0.58777320E+03   -0.64926553E-09    0.54130823E-04
   13   -0.58777320E+03   -0.20099833E-09    0.42133252E-04
   14   -0.58777320E+03   -0.43542059E-10    0.27629338E-04
   15   -0.58777320E+03   -0.24101610E-10    0.22626961E-04
   16   -0.58777320E+03   -0.81854523E-11    0.13562317E-04
   17   -0.58777320E+03   -0.36379788E-11    0.80239358E-05

Total Energy:                     -587.7732036064 H       -15994.1226 eV
Extrapolated to 0K:               -587.7732036064 H       -15994.1226 eV
Total Mermin free energy:         -587.7732036064 H       -15994.1226 eV
Force related energy:             -587.7732036064 H       -15994.1226 eV

Volume:                              0.331019E+05 au^3   0.490520E+04 A^3
Pressure:                           -0.934298E-05 au    -0.274880E+09 Pa
>> Charges saved for restart in charges.dat

total energy  -5.8777320E+02 H       energy change -2.8681771E-03 H
gradient norm  3.9741534E-02 H/a0    max. gradient  1.1533972E-02 H/a0
step length    1.2247455E-01 a0      max. step      3.8099702E-02 a0

--------------------------------------------------------------------------------

***  Geometry step: 4

 iSCC Total electronic   Diff electronic      SCC error    
    1   -0.58777320E+03    0.00000000E+00    0.18553684E+00
    2   -0.58777601E+03   -0.28074834E-02    0.50815337E-01
    3   -0.58777613E+03   -0.11721482E-03    0.12283155E-01
    4   -0.58777614E+03   -0.14849159E-04    0.73231173E-02
    5   -0.58777615E+03   -0.35887346E-05    0.43640487E-02
    6   -0.58777615E+03   -0.11746289E-05    0.21425073E-02
    7   -0.58777615E+03   -0.32937101E-06    0.16324542E-02
    8   -0.58777615E+03   -0.84471253E-07    0.10651590E-02
    9   -0.58777615E+03   -0.28931595E-07    0.59976728E-03
   10   -0.58777615E+03   -0.91631591E-08    0.30590798E-03
   11   -0.58777615E+03   -0.42662123E-08    0.13610539E-03
   12   -0.58777615E+03   -0.78864559E-09    0.83875107E-04
   13   -0.58777615E+03   -0.24704150E-09    0.62083701E-04
   14   -0.58777615E+03   -0.54455995E-10    0.39667508E-04
   15   -0.58777615E+03   -0.28649083E-10    0.27678629E-04
   16   -0.58777615E+03   -0.90949470E-11    0.13752195E-04
   17   -0.58777615E+03   -0.36379788E-11    0.64723966E-05

Total Energy:                     -587.7761483745 H       -15994.2028 eV
Extrapolated to 0K:               -587.7761483745 H       -15994.2028 eV
Total Mermin free energy:         -587.7761483745 H       -15994.2028 eV
Force related energy:             -587.7761483745 H       -15994.2028 eV

Volume:                              0.331019E+05 au^3   0.490520E+04 A^3
Pressure:                           -0.101612E-04 au    -0.298951E+09 Pa
>> Charges saved for restart in charges.dat

total energy  -5.8777615E+02 H       energy change -2.9447681E-03 H
gradient norm  4.2209031E-02 H/a0    max. gradient  1.0890645E-02 H/a0
step length    1.5914505E-01 a0      max. step      5.7264573E-02 a0

--------------------------------------------------------------------------------

***  Geometry step: 5

 iSCC Total electronic   Diff electronic      SCC error    
    1   -0.58777615E+03    0.00000000E+00    0.26415395E+00
    2   -0.58777952E+03   -0.33690016E-02    0.88235778E-01
    3   -0.58777972E+03   -0.20619225E-03    0.23981056E-01
    4   -0.58777975E+03   -0.22477150E-04    0.82362080E-02
    5   -0.58777975E+03   -0.43461847E-05    0.52113141E-02
    6   -0.58777975E+03   -0.12993320E-05    0.22955884E-02
    7   -0.58777975E+03   -0.38738551E-06    0.16738397E-02
    8   -0.58777975E+03   -0.97580482E-07    0.12268142E-02
    9   -0.58777975E+03   -0.32734192E-07    0.72753252E-03
   10   -0.58777975E+03   -0.15126943E-07    0.37943425E-03
   11   -0.58777975E+03   -0.54309339E-08    0.19379651E-03
   12   -0.58777975E+03   -0.14445050E-08    0.12217965E-03
   13   -0.58777975E+03   -0.52159521E-09    0.83880190E-04
   14   -0.58777975E+03   -0.10322765E-09    0.50278278E-04
   15   -0.58777975E+03   -0.51727511E-10    0.33265983E-04
   16   -0.58777975E+03   -0.14779289E-10    0.15252963E-04
   17   -0.58777975E+03   -0.69348971E-11    0.56545495E-05

Total Energy:                     -587.7797522314 H       -15994.3008 eV
Extrapolated to 0K:               -587.7797522314 H       -15994.3008 eV
Total Mermin free energy:         -587.7797522314 H       -15994.3008 eV
Force related energy:             -587.7797522314 H       -15994.3008 eV

Volume:                              0.331019E+05 au^3   0.490520E+04 A^3
Pressure:                           -0.100320E-04 au    -0.295151E+09 Pa
>> Charges saved for restart in charges.dat

total energy  -5.8777975E+02 H       energy change -3.6038569E-03 H
gradient norm  4.2731356E-02 H/a0    max. gradient  1.0599641E-02 H/a0
step length    2.2529322E-01 a0      max. step      8.8352554E-02 a0

--------------------------------------------------------------------------------

***  Geometry step: 6

 iSCC Total electronic   Diff electronic      SCC error    
    1   -0.58777975E+03    0.00000000E+00    0.32906088E+00
    2   -0.58778294E+03   -0.31892366E-02    0.11700458E+00
    3   -0.58778323E+03   -0.29170344E-03    0.33136987E-01
    4   -0.58778326E+03   -0.27723972E-04    0.11766847E-01
    5   -0.58778327E+03   -0.48656682E-05    0.50359943E-02
    6   -0.58778327E+03   -0.13883579E-05    0.20909411E-02
    7   -0.58778327E+03   -0.35970504E-06    0.12575277E-02
    8   -0.58778327E+03   -0.97645170E-07    0.10276222E-02
    9   -0.58778327E+03   -0.28273803E-07    0.65030663E-03
   10   -0.58778327E+03   -0.16033937E-07    0.34391058E-03
   11   -0.58778327E+03   -0.62865411E-08    0.20727891E-03
   12   -0.58778327E+03   -0.20021389E-08    0.12098880E-03
   13   -0.58778327E+03   -0.62095751E-09    0.75402656E-04
   14   -0.58778327E+03   -0.12494183E-09    0.43084630E-04
   15   -0.58778327E+03   -0.52068572E-10    0.25477276E-04
   16   -0.58778327E+03   -0.13756107E-10    0.13023386E-04
   17   -0.58778327E+03   -0.47748472E-11    0.50066456E-05

Total Energy:                     -587.7832676602 H       -15994.3965 eV
Extrapolated to 0K:               -587.7832676602 H       -15994.3965 eV
Total Mermin free energy:         -587.7832676602 H       -15994.3965 eV
Force related energy:             -587.7832676602 H       -15994.3965 eV

Volume:                              0.331019E+05 au^3   0.490520E+04 A^3
Pressure:                           -0.418081E-05 au    -0.123004E+09 Pa
>> Charges saved for restart in charges.dat

total energy  -5.8778327E+02 H       energy change -3.5154288E-03 H
gradient norm  6.2886347E-02 H/a0    max. gradient  2.7612280E-02 H/a0
step length    2.5743545E-01 a0      max. step      1.0822632E-01 a0

--------------------------------------------------------------------------------

***  Geometry step: 7

 iSCC Total electronic   Diff electronic      SCC error    
    1   -0.58778327E+03    0.00000000E+00    0.63624308E+00
    2   -0.58778548E+03   -0.22078167E-02    0.19071643E+00
    3   -0.58778627E+03   -0.79768347E-03    0.58163934E-01
    4   -0.58778634E+03   -0.65298733E-04    0.21194027E-01
    5   -0.58778635E+03   -0.11947066E-04    0.69850626E-02
    6   -0.58778635E+03   -0.34649391E-05    0.35428850E-02
    7   -0.58778635E+03   -0.80771258E-06    0.19138748E-02
    8   -0.58778635E+03   -0.23267467E-06    0.15908994E-02
    9   -0.58778635E+03   -0.65815129E-07    0.99972955E-03
   10   -0.58778636E+03   -0.36028609E-07    0.53720148E-03
   11   -0.58778636E+03   -0.12344003E-07    0.28777094E-03
   12   -0.58778636E+03   -0.42930424E-08    0.17963125E-03
   13   -0.58778636E+03   -0.12029204E-08    0.10752468E-03
   14   -0.58778636E+03   -0.22464519E-09    0.56192008E-04
   15   -0.58778636E+03   -0.10084023E-09    0.32144668E-04
   16   -0.58778636E+03   -0.25465852E-10    0.15409776E-04
   17   -0.58778636E+03   -0.73896445E-11    0.64812873E-05

Total Energy:                     -587.7863550316 H       -15994.4805 eV
Extrapolated to 0K:               -587.7863550316 H       -15994.4805 eV
Total Mermin free energy:         -587.7863550316 H       -15994.4805 eV
Force related energy:             -587.7863550316 H       -15994.4805 eV

Volume:                              0.331019E+05 au^3   0.490520E+04 A^3
Pressure:                           -0.105595E-04 au    -0.310672E+09 Pa
>> Charges saved for restart in charges.dat

total energy  -5.8778636E+02 H       energy change -3.0873713E-03 H
gradient norm  5.3824542E-02 H/a0    max. gradient  1.0412936E-02 H/a0
step length    3.9041686E-01 a0      max. step      1.6974400E-01 a0

--------------------------------------------------------------------------------

***  Geometry step: 8

 iSCC Total electronic   Diff electronic      SCC error    
    1   -0.58778636E+03    0.00000000E+00    0.24944796E+00
    2   -0.58778884E+03   -0.24802746E-02    0.48786761E-01
    3   -0.58778891E+03   -0.72493996E-04    0.13098770E-01
    4   -0.58778891E+03   -0.57636954E-05    0.48216590E-02
    5   -0.58778891E+03   -0.87081355E-06    0.22701076E-02
    6   -0.58778891E+03   -0.32439812E-06    0.14078316E-02
    7   -0.58778891E+03   -0.75874368E-07    0.10249145E-02
    8   -0.58778891E+03   -0.17677735E-07    0.75446964E-03
    9   -0.58778891E+03   -0.75924618E-08    0.41426084E-03
   10   -0.58778891E+03   -0.29458533E-08    0.21258206E-03
   11   -0.58778891E+03   -0.99191766E-09    0.74594317E-04
   12   -0.58778891E+03   -0.28092018E-09    0.40118048E-04
   13   -0.58778891E+03   -0.71054274E-10    0.29707177E-04
   14   -0.58778891E+03   -0.14324542E-10    0.16463871E-04
   15   -0.58778891E+03   -0.65938366E-11    0.96555963E-05

Total Energy:                     -587.7889148645 H       -15994.5502 eV
Extrapolated to 0K:               -587.7889148645 H       -15994.5502 eV
Total Mermin free energy:         -587.7889148645 H       -15994.5502 eV
Force related energy:             -587.7889148645 H       -15994.5502 eV

Volume:                              0.331019E+05 au^3   0.490520E+04 A^3
Pressure:                           -0.105502E-04 au    -0.310398E+09 Pa
>> Charges saved for restart in charges.dat

total energy  -5.8778891E+02 H       energy change -2.5598330E-03 H
gradient norm  4.3962743E-02 H/a0    max. gradient  9.5830635E-03 H/a0
step length    9.8604820E-02 a0      max. step      4.4346000E-02 a0

--------------------------------------------------------------------------------

***  Geometry step: 9

 iSCC Total electronic   Diff electronic      SCC error    
    1   -0.58778891E+03    0.00000000E+00    0.86321096E+00
    2   -0.58779382E+03   -0.49074376E-02    0.14391336E+00
    3   -0.58779454E+03   -0.71821398E-03    0.40312288E-01
    4   -0.58779459E+03   -0.51362228E-04    0.12771088E-01
    5   -0.58779460E+03   -0.74518575E-05    0.72030338E-02
    6   -0.58779460E+03   -0.31377386E-05    0.37406323E-02
    7   -0.58779460E+03   -0.73647379E-06    0.29555196E-02
    8   -0.58779460E+03   -0.16267052E-06    0.21094944E-02
    9   -0.58779460E+03   -0.77070126E-07    0.12004753E-02
   10   -0.58779460E+03   -0.26925818E-07    0.57071480E-03
   11   -0.58779460E+03   -0.91005177E-08    0.23050631E-03
   12   -0.58779460E+03   -0.20313564E-08    0.97164265E-04
   13   -0.58779460E+03   -0.66825123E-09    0.75876017E-04
   14   -0.58779460E+03   -0.11527845E-09    0.45233760E-04
   15   -0.58779460E+03   -0.44451554E-10    0.27572247E-04
   16   -0.58779460E+03   -0.10459189E-10    0.14571952E-04
   17   -0.58779460E+03   -0.39790393E-11    0.75056772E-05

Total Energy:                     -587.7946034830 H       -15994.7050 eV
Extrapolated to 0K:               -587.7946034830 H       -15994.7050 eV
Total Mermin free energy:         -587.7946034830 H       -15994.7050 eV
Force related energy:             -587.7946034830 H       -15994.7050 eV

Volume:                              0.331019E+05 au^3   0.490520E+04 A^3
Pressure:                           -0.110194E-04 au    -0.324203E+09 Pa
>> Charges saved for restart in charges.dat

total energy  -5.8779460E+02 H       energy change -5.6886185E-03 H
gradient norm  4.1480662E-02 H/a0    max. gradient  7.7342198E-03 H/a0
step length    3.1706524E-01 a0      max. step      1.4596394E-01 a0

--------------------------------------------------------------------------------

***  Geometry step: 10

 iSCC Total electronic   Diff electronic      SCC error    
    1   -0.58779460E+03    0.00000000E+00    0.76372681E+00
    2   -0.58779700E+03   -0.24001128E-02    0.12175599E+00
    3   -0.58779757E+03   -0.56303473E-03    0.42961686E-01
    4   -0.58779760E+03   -0.35964319E-04    0.13122580E-01
    5   -0.58779761E+03   -0.45006608E-05    0.73390675E-02
    6   -0.58779761E+03   -0.12753327E-05    0.34740116E-02
    7   -0.58779761E+03   -0.42765680E-06    0.20419097E-02
    8   -0.58779761E+03   -0.13589136E-06    0.15126484E-02
    9   -0.58779761E+03   -0.47495632E-07    0.77890543E-03
   10   -0.58779761E+03   -0.26021212E-07    0.38086106E-03
   11   -0.58779761E+03   -0.68152985E-08    0.16335069E-03
   12   -0.58779761E+03   -0.17887487E-08    0.10105400E-03
   13   -0.58779761E+03   -0.46577497E-09    0.73433983E-04
   14   -0.58779761E+03   -0.78898665E-10    0.47138417E-04
   15   -0.58779761E+03   -0.38426151E-10    0.26101380E-04
   16   -0.58779761E+03   -0.12164492E-10    0.13728407E-04
   17   -0.58779761E+03   -0.34106051E-11    0.63162618E-05

Total Energy:                     -587.7976090172 H       -15994.7867 eV
Extrapolated to 0K:               -587.7976090172 H       -15994.7867 eV
Total Mermin free energy:         -587.7976090172 H       -15994.7867 eV
Force related energy:             -587.7976090172 H       -15994.7867 eV

Volume:                              0.331019E+05 au^3   0.490520E+04 A^3
Pressure:                           -0.128007E-04 au    -0.376608E+09 Pa
>> Charges saved for restart in charges.dat

total energy  -5.8779761E+02 H       energy change -3.0055341E-03 H
gradient norm  4.4598341E-02 H/a0    max. gradient  8.0430649E-03 H/a0
step length    2.8905125E-01 a0      max. step      1.4207935E-01 a0

--------------------------------------------------------------------------------

***  Geometry step: 11

 iSCC Total electronic   Diff electronic      SCC error    
    1   -0.58779761E+03    0.00000000E+00    0.77851756E+00
    2   -0.58780012E+03   -0.25067897E-02    0.12604103E+00
    3   -0.58780077E+03   -0.65537248E-03    0.45809730E-01
    4   -0.58780081E+03   -0.43265275E-04    0.14780042E-01
    5   -0.58780082E+03   -0.60328325E-05    0.87097711E-02
    6   -0.58780082E+03   -0.15752940E-05    0.40105155E-02
    7   -0.58780082E+03   -0.49576977E-06    0.19844603E-02
    8   -0.58780082E+03   -0.17200375E-06    0.15137996E-02
    9   -0.58780082E+03   -0.66551365E-07    0.92803287E-03
   10   -0.58780082E+03   -0.36755637E-07    0.54795089E-03
   11   -0.58780082E+03   -0.11020006E-07    0.28359524E-03
   12   -0.58780082E+03   -0.32152911E-08    0.16912735E-03
   13   -0.58780082E+03   -0.75704065E-09    0.11556815E-03
   14   -0.58780082E+03   -0.15415935E-09    0.62889873E-04
   15   -0.58780082E+03   -0.96861186E-10    0.28800677E-04
   16   -0.58780082E+03   -0.37630343E-10    0.13100360E-04
   17   -0.58780082E+03   -0.12164492E-10    0.57654882E-05

Total Energy:                     -587.8008228392 H       -15994.8742 eV
Extrapolated to 0K:               -587.8008228392 H       -15994.8742 eV
Total Mermin free energy:         -587.8008228392 H       -15994.8742 eV
Force related energy:             -587.8008228392 H       -15994.8742 eV

Volume:                              0.331019E+05 au^3   0.490520E+04 A^3
Pressure:                           -0.155322E-04 au    -0.456974E+09 Pa
>> Charges saved for restart in charges.dat

total energy  -5.8780082E+02 H       energy change -3.2138220E-03 H
gradient norm  3.9464069E-02 H/a0    max. gradient  8.2882500E-03 H/a0
step length    3.1776068E-01 a0      max. step      1.5404692E-01 a0

--------------------------------------------------------------------------------

***  Geometry step: 12

 iSCC Total electronic   Diff electronic      SCC error    
    1   -0.58780082E+03    0.00000000E+00    0.42308212E+00
    2   -0.58780298E+03   -0.21614116E-02    0.90445763E-01
    3   -0.58780328E+03   -0.29128119E-03    0.28625892E-01
    4   -0.58780330E+03   -0.22298758E-04    0.90857817E-02
    5   -0.58780330E+03   -0.36728392E-05    0.56287170E-02
    6   -0.58780330E+03   -0.96807139E-06    0.26848891E-02
    7   -0.58780330E+03   -0.22295762E-06    0.19340025E-02
    8   -0.58780330E+03   -0.10219208E-06    0.15007253E-02
    9   -0.58780330E+03   -0.36252572E-07    0.88439701E-03
   10   -0.58780330E+03   -0.19930894E-07    0.45409653E-03
   11   -0.58780330E+03   -0.66614803E-08    0.22522932E-03
   12   -0.58780330E+03   -0.22185986E-08    0.11884213E-03
   13   -0.58780330E+03   -0.51295501E-09    0.71466112E-04
   14   -0.58780330E+03   -0.12312285E-09    0.37423540E-04
   15   -0.58780330E+03   -0.57980287E-10    0.19466700E-04
   16   -0.58780330E+03   -0.22282620E-10    0.80875879E-05

Total Energy:                     -587.8033028625 H       -15994.9417 eV
Extrapolated to 0K:               -587.8033028625 H       -15994.9417 eV
Total Mermin free energy:         -587.8033028625 H       -15994.9417 eV
Force related energy:             -587.8033028625 H       -15994.9417 eV

Volume:                              0.331019E+05 au^3   0.490520E+04 A^3
Pressure:                           -0.167728E-04 au    -0.493473E+09 Pa
>> Charges saved for restart in charges.dat

total energy  -5.8780330E+02 H       energy change -2.4800234E-03 H
gradient norm  3.4826169E-02 H/a0    max. gradient  7.7286210E-03 H/a0
step length    2.1015082E-01 a0      max. step      9.1070505E-02 a0

--------------------------------------------------------------------------------

***  Geometry step: 13

 iSCC Total electronic   Diff electronic      SCC error    
    1   -0.58780330E+03    0.00000000E+00    0.34582323E+00
    2   -0.58780528E+03   -0.19731727E-02    0.86679442E-01
    3   -0.58780549E+03   -0.21756443E-03    0.25998114E-01
    4   -0.58780551E+03   -0.16900049E-04    0.80667888E-02
    5   -0.58780551E+03   -0.26509821E-05    0.50456193E-02
    6   -0.58780551E+03   -0.83841235E-06    0.28339371E-02
    7   -0.58780551E+03   -0.19247386E-06    0.17139796E-02
    8   -0.58780551E+03   -0.78407538E-07    0.12343795E-02
    9   -0.58780551E+03   -0.27252213E-07    0.72806485E-03
   10   -0.58780551E+03   -0.13779641E-07    0.35237530E-03
   11   -0.58780551E+03   -0.48066795E-08    0.22718537E-03
   12   -0.58780551E+03   -0.13409363E-08    0.13717192E-03
   13   -0.58780551E+03   -0.48237325E-09    0.77468692E-04
   14   -0.58780551E+03   -0.14892976E-09    0.41712689E-04
   15   -0.58780551E+03   -0.48430593E-10    0.21471851E-04
   16   -0.58780551E+03   -0.15688784E-10    0.77810881E-05

Total Energy:                     -587.8055143078 H       -15995.0019 eV
Extrapolated to 0K:               -587.8055143078 H       -15995.0019 eV
Total Mermin free energy:         -587.8055143078 H       -15995.0019 eV
Force related energy:             -587.8055143078 H       -15995.0019 eV

Volume:                              0.331019E+05 au^3   0.490520E+04 A^3
Pressure:                           -0.134752E-04 au    -0.396454E+09 Pa
>> Charges saved for restart in charges.dat

total energy  -5.8780551E+02 H       energy change -2.2114453E-03 H
gradient norm  4.1751216E-02 H/a0    max. gradient  9.4666744E-03 H/a0
step length    1.8089539E-01 a0      max. step      6.2492462E-02 a0

--------------------------------------------------------------------------------

***  Geometry step: 14

 iSCC Total electronic   Diff electronic      SCC error    
    1   -0.58780551E+03    0.00000000E+00    0.45313016E+00
    2   -0.58780736E+03   -0.18465417E-02    0.10565597E+00
    3   -0.58780769E+03   -0.32689866E-03    0.35832359E-01
    4   -0.58780771E+03   -0.22803458E-04    0.11662345E-01
    5   -0.58780771E+03   -0.34601495E-05    0.72263252E-02
    6   -0.58780772E+03   -0.12588363E-05    0.44015367E-02
    7   -0.58780772E+03   -0.35655717E-06    0.24570352E-02
    8   -0.58780772E+03   -0.14833643E-06    0.16946438E-02
    9   -0.58780772E+03   -0.52213863E-07    0.92709213E-03
   10   -0.58780772E+03   -0.25152417E-07    0.41602742E-03
   11   -0.58780772E+03   -0.77488949E-08    0.30217586E-03
   12   -0.58780772E+03   -0.17253114E-08    0.20299204E-03
   13   -0.58780772E+03   -0.78648554E-09    0.11720355E-03
   14   -0.58780772E+03   -0.29444891E-09    0.61467913E-04
   15   -0.58780772E+03   -0.96520125E-10    0.25981415E-04
   16   -0.58780772E+03   -0.25124791E-10    0.95931625E-05

Total Energy:                     -587.8077158636 H       -15995.0618 eV
Extrapolated to 0K:               -587.8077158636 H       -15995.0618 eV
Total Mermin free energy:         -587.8077158636 H       -15995.0618 eV
Force related energy:             -587.8077158636 H       -15995.0618 eV

Volume:                              0.331019E+05 au^3   0.490520E+04 A^3
Pressure:                           -0.171778E-04 au    -0.505387E+09 Pa
>> Charges saved for restart in charges.dat

total energy  -5.8780772E+02 H       energy change -2.2015557E-03 H
gradient norm  3.9496789E-02 H/a0    max. gradient  7.0093194E-03 H/a0
step length    2.3258952E-01 a0      max. step      8.3899384E-02 a0

--------------------------------------------------------------------------------

***  Geometry step: 15

 iSCC Total electronic   Diff electronic      SCC error    
    1   -0.58780772E+03    0.00000000E+00    0.29631200E+00
    2   -0.58780951E+03   -0.17951956E-02    0.88529743E-01
    3   -0.58780964E+03   -0.12780672E-03    0.23559343E-01
    4   -0.58780965E+03   -0.15111117E-04    0.72802641E-02
    5   -0.58780966E+03   -0.23787469E-05    0.42896664E-02
    6   -0.58780966E+03   -0.81947303E-06    0.16734298E-02
    7   -0.58780966E+03   -0.18522826E-06    0.10580056E-02
    8   -0.58780966E+03   -0.48321681E-07    0.68972188E-03
    9   -0.58780966E+03   -0.14842499E-07    0.44849685E-03
   10   -0.58780966E+03   -0.48082711E-08    0.22920022E-03
   11   -0.58780966E+03   -0.18412720E-08    0.10769745E-03
   12   -0.58780966E+03   -0.42791726E-09    0.47622473E-04
   13   -0.58780966E+03   -0.14290436E-09    0.36168134E-04
   14   -0.58780966E+03   -0.33196557E-10    0.28734007E-04
   15   -0.58780966E+03   -0.95496944E-11    0.20053065E-04
   16   -0.58780966E+03   -0.39790393E-11    0.92648471E-05

Total Energy:                     -587.8096574309 H       -15995.1146 eV
Extrapolated to 0K:               -587.8096574309 H       -15995.1146 eV
Total Mermin free energy:         -587.8096574309 H       -15995.1146 eV
Force related energy:             -587.8096574309 H       -15995.1146 eV

Volume:                              0.331019E+05 au^3   0.490520E+04 A^3
Pressure:                           -0.152102E-04 au    -0.447500E+09 Pa
>> Charges saved for restart in charges.dat

total energy  -5.8780966E+02 H       energy change -1.9415673E-03 H
gradient norm  3.3039749E-02 H/a0    max. gradient  6.2013987E-03 H/a0
step length    1.6352413E-01 a0      max. step      4.5698807E-02 a0

--------------------------------------------------------------------------------

***  Geometry step: 16

 iSCC Total electronic   Diff electronic      SCC error    
    1   -0.58780966E+03    0.00000000E+00    0.30423541E+00
    2   -0.58781113E+03   -0.14716975E-02    0.88736953E-01
    3   -0.58781131E+03   -0.17754310E-03    0.26271488E-01
    4   -0.58781132E+03   -0.16655705E-04    0.77324775E-02
    5   -0.58781133E+03   -0.24491760E-05    0.33133366E-02
    6   -0.58781133E+03   -0.68007955E-06    0.15697047E-02
    7   -0.58781133E+03   -0.15979617E-06    0.99371119E-03
    8   -0.58781133E+03   -0.45833758E-07    0.67061207E-03
    9   -0.58781133E+03   -0.13131512E-07    0.42441868E-03
   10   -0.58781133E+03   -0.45695288E-08    0.20080665E-03
   11   -0.58781133E+03   -0.16683543E-08    0.88489062E-04
   12   -0.58781133E+03   -0.39756287E-09    0.38505873E-04
   13   -0.58781133E+03   -0.94814823E-10    0.23718200E-04
   14   -0.58781133E+03   -0.21032065E-10    0.13252337E-04
   15   -0.58781133E+03   -0.69348971E-11    0.10506104E-04
   16   -0.58781133E+03   -0.18189894E-11    0.56586412E-05

Total Energy:                     -587.8113266819 H       -15995.1600 eV
Extrapolated to 0K:               -587.8113266819 H       -15995.1600 eV
Total Mermin free energy:         -587.8113266819 H       -15995.1600 eV
Force related energy:             -587.8113266819 H       -15995.1600 eV

Volume:                              0.331019E+05 au^3   0.490520E+04 A^3
Pressure:                           -0.128967E-04 au    -0.379434E+09 Pa
>> Charges saved for restart in charges.dat

total energy  -5.8781133E+02 H       energy change -1.6692511E-03 H
gradient norm  2.5175129E-02 H/a0    max. gradient  6.4883973E-03 H/a0
step length    1.6189648E-01 a0      max. step      4.2978477E-02 a0

--------------------------------------------------------------------------------

***  Geometry step: 17

 iSCC Total electronic   Diff electronic      SCC error    
    1   -0.58781133E+03    0.00000000E+00    0.25588016E+00
    2   -0.58781228E+03   -0.94872845E-03    0.61351033E-01
    3   -0.58781239E+03   -0.11035121E-03    0.19492343E-01
    4   -0.58781239E+03   -0.78531609E-05    0.56796318E-02
    5   -0.58781239E+03   -0.10905492E-05    0.21987922E-02
    6   -0.58781239E+03   -0.28281977E-06    0.11890389E-02
    7   -0.58781240E+03   -0.66520101E-07    0.65546705E-03
    8   -0.58781240E+03   -0.22626409E-07    0.41946845E-03
    9   -0.58781240E+03   -0.59719696E-08    0.26320708E-03
   10   -0.58781240E+03   -0.20337438E-08    0.10737828E-03
   11   -0.58781240E+03   -0.72009243E-09    0.47712822E-04
   12   -0.58781240E+03   -0.16450485E-09    0.27310220E-04
   13   -0.58781240E+03   -0.38198777E-10    0.18149674E-04
   14   -0.58781240E+03   -0.70485839E-11    0.95778309E-05

Total Energy:                     -587.8123950862 H       -15995.1891 eV
Extrapolated to 0K:               -587.8123950862 H       -15995.1891 eV
Total Mermin free energy:         -587.8123950862 H       -15995.1891 eV
Force related energy:             -587.8123950862 H       -15995.1891 eV

Volume:                              0.331019E+05 au^3   0.490520E+04 A^3
Pressure:                           -0.114956E-04 au    -0.338212E+09 Pa
>> Charges saved for restart in charges.dat

total energy  -5.8781240E+02 H       energy change -1.0684043E-03 H
gradient norm  2.6234954E-02 H/a0    max. gradient  6.6811647E-03 H/a0
step length    1.2177261E-01 a0      max. step      3.4955618E-02 a0

--------------------------------------------------------------------------------

***  Geometry step: 18

 iSCC Total electronic   Diff electronic      SCC error    
    1   -0.58781240E+03    0.00000000E+00    0.38456463E+00
    2   -0.58781364E+03   -0.12468224E-02    0.77093018E-01
    3   -0.58781381E+03   -0.16782253E-03    0.24707693E-01
    4   -0.58781382E+03   -0.10984247E-04    0.74537521E-02
    5   -0.58781382E+03   -0.15458676E-05    0.33994108E-02
    6   -0.58781382E+03   -0.43245507E-06    0.18014407E-02
    7   -0.58781382E+03   -0.11631607E-06    0.84119846E-03
    8   -0.58781382E+03   -0.44615490E-07    0.52932913E-03
    9   -0.58781382E+03   -0.10963049E-07    0.30948649E-03
   10   -0.58781382E+03   -0.38736516E-08    0.11218334E-03
   11   -0.58781382E+03   -0.11519887E-08    0.60115202E-04
   12   -0.58781382E+03   -0.24670044E-09    0.34446451E-04
   13   -0.58781382E+03   -0.67188921E-10    0.23597267E-04
   14   -0.58781382E+03   -0.13756107E-10    0.13343712E-04
   15   -0.58781382E+03   -0.53432814E-11    0.63709412E-05

Total Energy:                     -587.8138228710 H       -15995.2279 eV
Extrapolated to 0K:               -587.8138228710 H       -15995.2279 eV
Total Mermin free energy:         -587.8138228710 H       -15995.2279 eV
Force related energy:             -587.8138228710 H       -15995.2279 eV

Volume:                              0.331019E+05 au^3   0.490520E+04 A^3
Pressure:                           -0.102682E-04 au    -0.302101E+09 Pa
>> Charges saved for restart in charges.dat

total energy  -5.8781382E+02 H       energy change -1.4277848E-03 H
gradient norm  3.1011399E-02 H/a0    max. gradient  6.8341550E-03 H/a0
step length    1.6629938E-01 a0      max. step      5.0711013E-02 a0

--------------------------------------------------------------------------------

***  Geometry step: 19

 iSCC Total electronic   Diff electronic      SCC error    
    1   -0.58781382E+03    0.00000000E+00    0.53598776E+00
    2   -0.58781545E+03   -0.16295897E-02    0.93041686E-01
    3   -0.58781568E+03   -0.22907312E-03    0.29349275E-01
    4   -0.58781570E+03   -0.16668690E-04    0.90400783E-02
    5   -0.58781570E+03   -0.25526986E-05    0.50672839E-02
    6   -0.58781570E+03   -0.73852527E-06    0.27889641E-02
    7   -0.58781570E+03   -0.22830022E-06    0.15093473E-02
    8   -0.58781570E+03   -0.88523620E-07    0.89481264E-03
    9   -0.58781570E+03   -0.21990900E-07    0.47801829E-03
   10   -0.58781570E+03   -0.10360054E-07    0.27804680E-03
   11   -0.58781570E+03   -0.27475835E-08    0.20542935E-03
   12   -0.58781570E+03   -0.63744210E-09    0.12145601E-03
   13   -0.58781570E+03   -0.25613645E-09    0.71679578E-04
   14   -0.58781570E+03   -0.86288310E-10    0.31351936E-04
   15   -0.58781570E+03   -0.39904080E-10    0.18011329E-04
   16   -0.58781570E+03   -0.10231815E-10    0.56184089E-05

Total Energy:                     -587.8157018467 H       -15995.2791 eV
Extrapolated to 0K:               -587.8157018467 H       -15995.2791 eV
Total Mermin free energy:         -587.8157018467 H       -15995.2791 eV
Force related energy:             -587.8157018467 H       -15995.2791 eV

Volume:                              0.331019E+05 au^3   0.490520E+04 A^3
Pressure:                           -0.938910E-05 au    -0.276237E+09 Pa
>> Charges saved for restart in charges.dat

total energy  -5.8781570E+02 H       energy change -1.8789757E-03 H
gradient norm  3.4067318E-02 H/a0    max. gradient  6.7905161E-03 H/a0
step length    2.1526235E-01 a0      max. step      6.7749421E-02 a0

--------------------------------------------------------------------------------

***  Geometry step: 20

 iSCC Total electronic   Diff electronic      SCC error    
    1   -0.58781570E+03    0.00000000E+00    0.52279564E+00
    2   -0.58781736E+03   -0.16593624E-02    0.93081683E-01
    3   -0.58781758E+03   -0.21501950E-03    0.27175277E-01
    4   -0.58781759E+03   -0.18307769E-04    0.79765852E-02
    5   -0.58781760E+03   -0.29183119E-05    0.62257721E-02
    6   -0.58781760E+03   -0.84325882E-06    0.40448503E-02
    7   -0.58781760E+03   -0.28508498E-06    0.24652267E-02
    8   -0.58781760E+03   -0.10895656E-06    0.16459006E-02
    9   -0.58781760E+03   -0.32059233E-07    0.90543492E-03
   10   -0.58781760E+03   -0.20006382E-07    0.46668281E-03
   11   -0.58781760E+03   -0.71619297E-08    0.30691382E-03
   12   -0.58781760E+03   -0.16538024E-08    0.13529305E-03
   13   -0.58781760E+03   -0.68348527E-09    0.74338362E-04
   14   -0.58781760E+03   -0.16791546E-09    0.41351505E-04
   15   -0.58781760E+03   -0.64346750E-10    0.17237567E-04
   16   -0.58781760E+03   -0.20349944E-10    0.65594910E-05

Total Energy:                     -587.8175987538 H       -15995.3307 eV
Extrapolated to 0K:               -587.8175987538 H       -15995.3307 eV
Total Mermin free energy:         -587.8175987538 H       -15995.3307 eV
Force related energy:             -587.8175987538 H       -15995.3307 eV

Volume:                              0.331019E+05 au^3   0.490520E+04 A^3
Pressure:                           -0.920587E-05 au    -0.270846E+09 Pa
>> Charges saved for restart in charges.dat

total energy  -5.8781760E+02 H       energy change -1.8969071E-03 H
gradient norm  3.1412669E-02 H/a0    max. gradient  5.9496511E-03 H/a0
step length    2.1174386E-01 a0      max. step      6.4367915E-02 a0

--------------------------------------------------------------------------------

***  Geometry step: 21

 iSCC Total electronic   Diff electronic      SCC error    
    1   -0.58781760E+03    0.00000000E+00    0.34124799E+00
    2   -0.58781883E+03   -0.12341994E-02    0.72658761E-01
    3   -0.58781900E+03   -0.16694835E-03    0.20553611E-01
    4   -0.58781901E+03   -0.12745217E-04    0.62693349E-02
    5   -0.58781901E+03   -0.18952035E-05    0.50564441E-02
    6   -0.58781902E+03   -0.54523218E-06    0.32191534E-02
    7   -0.58781902E+03   -0.17468722E-06    0.21415139E-02
    8   -0.58781902E+03   -0.64732262E-07    0.14645492E-02
    9   -0.58781902E+03   -0.23423922E-07    0.83785970E-03
   10   -0.58781902E+03   -0.15066007E-07    0.38724196E-03
   11   -0.58781902E+03   -0.61438641E-08    0.20503452E-03
   12   -0.58781902E+03   -0.15030537E-08    0.77026264E-04
   13   -0.58781902E+03   -0.42541615E-09    0.36421590E-04
   14   -0.58781902E+03   -0.76283868E-10    0.21162812E-04
   15   -0.58781902E+03   -0.38539838E-10    0.10452375E-04
   16   -0.58781902E+03   -0.11368684E-10    0.42112023E-05

Total Energy:                     -587.8190153733 H       -15995.3692 eV
Extrapolated to 0K:               -587.8190153733 H       -15995.3692 eV
Total Mermin free energy:         -587.8190153733 H       -15995.3692 eV
Force related energy:             -587.8190153733 H       -15995.3692 eV

Volume:                              0.331019E+05 au^3   0.490520E+04 A^3
Pressure:                           -0.977445E-05 au    -0.287574E+09 Pa
>> Charges saved for restart in charges.dat

total energy  -5.8781902E+02 H       energy change -1.4166195E-03 H
gradient norm  2.6571624E-02 H/a0    max. gradient  6.1560745E-03 H/a0
step length    1.5661206E-01 a0      max. step      6.5646900E-02 a0

--------------------------------------------------------------------------------

***  Geometry step: 22

 iSCC Total electronic   Diff electronic      SCC error    
    1   -0.58781902E+03    0.00000000E+00    0.23772858E+00
    2   -0.58781996E+03   -0.94369715E-03    0.42167880E-01
    3   -0.58782005E+03   -0.94635250E-04    0.14150369E-01
    4   -0.58782006E+03   -0.59728330E-05    0.40032274E-02
    5   -0.58782006E+03   -0.95500661E-06    0.21273841E-02
    6   -0.58782006E+03   -0.27083536E-06    0.12650068E-02
    7   -0.58782006E+03   -0.90524054E-07    0.85820156E-03
    8   -0.58782006E+03   -0.25922191E-07    0.59576160E-03
    9   -0.58782006E+03   -0.89979721E-08    0.39711904E-03
   10   -0.58782006E+03   -0.49677737E-08    0.24521911E-03
   11   -0.58782006E+03   -0.21476581E-08    0.12641556E-03
   12   -0.58782006E+03   -0.61299943E-09    0.63798203E-04
   13   -0.58782006E+03   -0.13380941E-09    0.32621666E-04
   14   -0.58782006E+03   -0.32173375E-10    0.14564447E-04
   15   -0.58782006E+03   -0.17394086E-10    0.66682984E-05

Total Energy:                     -587.8200610378 H       -15995.3977 eV
Extrapolated to 0K:               -587.8200610378 H       -15995.3977 eV
Total Mermin free energy:         -587.8200610378 H       -15995.3977 eV
Force related energy:             -587.8200610378 H       -15995.3977 eV

Volume:                              0.331019E+05 au^3   0.490520E+04 A^3
Pressure:                           -0.108089E-04 au    -0.318008E+09 Pa
>> Charges saved for restart in charges.dat

total energy  -5.8782006E+02 H       energy change -1.0456644E-03 H
gradient norm  2.4570841E-02 H/a0    max. gradient  5.7332190E-03 H/a0
step length    1.0191452E-01 a0      max. step      3.3792012E-02 a0

--------------------------------------------------------------------------------

***  Geometry step: 23

 iSCC Total electronic   Diff electronic      SCC error    
    1   -0.58782006E+03    0.00000000E+00    0.20853933E+00
    2   -0.58782100E+03   -0.93995422E-03    0.45871621E-01
    3   -0.58782107E+03   -0.64077551E-04    0.13428592E-01
    4   -0.58782107E+03   -0.40297321E-05    0.36197741E-02
    5   -0.58782107E+03   -0.76719289E-06    0.17787504E-02
    6   -0.58782107E+03   -0.28038721E-06    0.11154377E-02
    7   -0.58782107E+03   -0.91132847E-07    0.77791297E-03
    8   -0.58782107E+03   -0.23894245E-07    0.58281452E-03
    9   -0.58782107E+03   -0.98655164E-08    0.35043434E-03
   10   -0.58782107E+03   -0.57550551E-08    0.21845000E-03
   11   -0.58782107E+03   -0.18929995E-08    0.11647971E-03
   12   -0.58782107E+03   -0.53637450E-09    0.74006547E-04
   13   -0.58782107E+03   -0.11630163E-09    0.46423809E-04
   14   -0.58782107E+03   -0.34333425E-10    0.20099957E-04
   15   -0.58782107E+03   -0.18530955E-10    0.11772305E-04
   16   -0.58782107E+03   -0.32969183E-11    0.51350338E-05

Total Energy:                     -587.8210702801 H       -15995.4252 eV
Extrapolated to 0K:               -587.8210702801 H       -15995.4252 eV
Total Mermin free energy:         -587.8210702801 H       -15995.4252 eV
Force related energy:             -587.8210702801 H       -15995.4252 eV

Volume:                              0.331019E+05 au^3   0.490520E+04 A^3
Pressure:                           -0.115963E-04 au    -0.341174E+09 Pa
>> Charges saved for restart in charges.dat

total energy  -5.8782107E+02 H       energy change -1.0092423E-03 H
gradient norm  2.4440602E-02 H/a0    max. gradient  4.5928630E-03 H/a0
step length    1.0083758E-01 a0      max. step      3.1553966E-02 a0

--------------------------------------------------------------------------------

***  Geometry step: 24

 iSCC Total electronic   Diff electronic      SCC error    
    1   -0.58782107E+03    0.00000000E+00    0.30515867E+00
    2   -0.58782198E+03   -0.90677321E-03    0.66085515E-01
    3   -0.58782205E+03   -0.68972148E-04    0.19972360E-01
    4   -0.58782205E+03   -0.49878205E-05    0.42327598E-02
    5   -0.58782205E+03   -0.10217584E-05    0.21394174E-02
    6   -0.58782205E+03   -0.30695605E-06    0.14252772E-02
    7   -0.58782205E+03   -0.10847361E-06    0.81449003E-03
    8   -0.58782205E+03   -0.26567704E-07    0.49725751E-03
    9   -0.58782205E+03   -0.88401748E-08    0.32090020E-03
   10   -0.58782205E+03   -0.52646101E-08    0.20463171E-03
   11   -0.58782205E+03   -0.21516371E-08    0.10740705E-03
   12   -0.58782205E+03   -0.69007910E-09    0.67611910E-04
   13   -0.58782205E+03   -0.99021236E-10    0.42909493E-04
   14   -0.58782205E+03   -0.26943781E-10    0.20955380E-04
   15   -0.58782205E+03   -0.12278178E-10    0.12758141E-04
   16   -0.58782205E+03   -0.34106051E-11    0.55032365E-05

Total Energy:                     -587.8220524941 H       -15995.4519 eV
Extrapolated to 0K:               -587.8220524941 H       -15995.4519 eV
Total Mermin free energy:         -587.8220524941 H       -15995.4519 eV
Force related energy:             -587.8220524941 H       -15995.4519 eV

Volume:                              0.331019E+05 au^3   0.490520E+04 A^3
Pressure:                           -0.120195E-04 au    -0.353626E+09 Pa
>> Charges saved for restart in charges.dat

total energy  -5.8782205E+02 H       energy change -9.8221403E-04 H
gradient norm  2.3394388E-02 H/a0    max. gradient  4.1692089E-03 H/a0
step length    1.2663838E-01 a0      max. step      3.5350600E-02 a0

--------------------------------------------------------------------------------

***  Geometry step: 25

 iSCC Total electronic   Diff electronic      SCC error    
    1   -0.58782205E+03    0.00000000E+00    0.29828696E+00
    2   -0.58782283E+03   -0.77753530E-03    0.65904085E-01
    3   -0.58782291E+03   -0.81017942E-04    0.20248456E-01
    4   -0.58782292E+03   -0.57370694E-05    0.40628172E-02
    5   -0.58782292E+03   -0.10725641E-05    0.20452695E-02
    6   -0.58782292E+03   -0.25890631E-06    0.14358690E-02
    7   -0.58782292E+03   -0.95759674E-07    0.84909949E-03
    8   -0.58782292E+03   -0.22613222E-07    0.57705460E-03
    9   -0.58782292E+03   -0.80684686E-08    0.39160296E-03
   10   -0.58782292E+03   -0.45296247E-08    0.22392043E-03
   11   -0.58782292E+03   -0.21732376E-08    0.10630950E-03
   12   -0.58782292E+03   -0.63437255E-09    0.68717558E-04
   13   -0.58782292E+03   -0.10390977E-09    0.45121205E-04
   14   -0.58782292E+03   -0.30581759E-10    0.20156499E-04
   15   -0.58782292E+03   -0.13983481E-10    0.10836419E-04
   16   -0.58782292E+03   -0.42064130E-11    0.41031966E-05

Total Energy:                     -587.8229182498 H       -15995.4754 eV
Extrapolated to 0K:               -587.8229182498 H       -15995.4754 eV
Total Mermin free energy:         -587.8229182498 H       -15995.4754 eV
Force related energy:             -587.8229182498 H       -15995.4754 eV

Volume:                              0.331019E+05 au^3   0.490520E+04 A^3
Pressure:                           -0.118576E-04 au    -0.348862E+09 Pa
>> Charges saved for restart in charges.dat

total energy  -5.8782292E+02 H       energy change -8.6575571E-04 H
gradient norm  2.0466938E-02 H/a0    max. gradient  3.7207161E-03 H/a0
step length    1.2620279E-01 a0      max. step      3.5634225E-02 a0

--------------------------------------------------------------------------------

***  Geometry step: 26

 iSCC Total electronic   Diff electronic      SCC error    
    1   -0.58782292E+03    0.00000000E+00    0.33177989E+00
    2   -0.58782350E+03   -0.58565126E-03    0.66528986E-01
    3   -0.58782360E+03   -0.97060652E-04    0.21560936E-01
    4   -0.58782361E+03   -0.55219610E-05    0.44533459E-02
    5   -0.58782361E+03   -0.92821813E-06    0.30152095E-02
    6   -0.58782361E+03   -0.19656818E-06    0.95949266E-03
    7   -0.58782361E+03   -0.78416520E-07    0.47436450E-03
    8   -0.58782361E+03   -0.16105218E-07    0.30204560E-03
    9   -0.58782361E+03   -0.44341277E-08    0.19259318E-03
   10   -0.58782361E+03   -0.15912747E-08    0.10325899E-03
   11   -0.58782361E+03   -0.83991836E-09    0.69462312E-04
   12   -0.58782361E+03   -0.27193892E-09    0.44887567E-04
   13   -0.58782361E+03   -0.66393113E-10    0.30314161E-04
   14   -0.58782361E+03   -0.12732926E-10    0.17283664E-04
   15   -0.58782361E+03   -0.59117156E-11    0.99353759E-05

Total Energy:                     -587.8236077102 H       -15995.4942 eV
Extrapolated to 0K:               -587.8236077102 H       -15995.4942 eV
Total Mermin free energy:         -587.8236077102 H       -15995.4942 eV
Force related energy:             -587.8236077102 H       -15995.4942 eV

Volume:                              0.331019E+05 au^3   0.490520E+04 A^3
Pressure:                           -0.116266E-04 au    -0.342068E+09 Pa
>> Charges saved for restart in charges.dat

total energy  -5.8782361E+02 H       energy change -6.8946041E-04 H
gradient norm  1.8899070E-02 H/a0    max. gradient  4.1927694E-03 H/a0
step length    1.3085499E-01 a0      max. step      3.9236019E-02 a0

--------------------------------------------------------------------------------

***  Geometry step: 27

 iSCC Total electronic   Diff electronic      SCC error    
    1   -0.58782361E+03    0.00000000E+00    0.24343089E+00
    2   -0.58782416E+03   -0.55648966E-03    0.51024986E-01
    3   -0.58782422E+03   -0.59919016E-04    0.15566022E-01
    4   -0.58782423E+03   -0.35523722E-05    0.31283480E-02
    5   -0.58782423E+03   -0.63901246E-06    0.21992857E-02
    6   -0.58782423E+03   -0.16582067E-06    0.85160332E-03
    7   -0.58782423E+03   -0.77388790E-07    0.60085230E-03
    8   -0.58782423E+03   -0.13845124E-07    0.39458230E-03
    9   -0.58782423E+03   -0.46575224E-08    0.25369453E-03
   10   -0.58782423E+03   -0.16475497E-08    0.12651953E-03
   11   -0.58782423E+03   -0.80058271E-09    0.72482366E-04
   12   -0.58782423E+03   -0.17473667E-09    0.51367611E-04
   13   -0.58782423E+03   -0.58435035E-10    0.36280825E-04
   14   -0.58782423E+03   -0.22055247E-10    0.20682876E-04
   15   -0.58782423E+03   -0.81854523E-11    0.10314506E-04
   16   -0.58782423E+03   -0.30695446E-11    0.45419868E-05

Total Energy:                     -587.8242285747 H       -15995.5111 eV
Extrapolated to 0K:               -587.8242285747 H       -15995.5111 eV
Total Mermin free energy:         -587.8242285747 H       -15995.5111 eV
Force related energy:             -587.8242285747 H       -15995.5111 eV

Volume:                              0.331019E+05 au^3   0.490520E+04 A^3
Pressure:                           -0.112386E-04 au    -0.330652E+09 Pa
>> Charges saved for restart in charges.dat

total energy  -5.8782423E+02 H       energy change -6.2086449E-04 H
gradient norm  1.8923805E-02 H/a0    max. gradient  4.1716050E-03 H/a0
step length    1.0741190E-01 a0      max. step      3.3450170E-02 a0

--------------------------------------------------------------------------------

***  Geometry step: 28

 iSCC Total electronic   Diff electronic      SCC error    
    1   -0.58782423E+03    0.00000000E+00    0.31840864E+00
    2   -0.58782478E+03   -0.54949474E-03    0.64171083E-01
    3   -0.58782485E+03   -0.68774056E-04    0.19897422E-01
    4   -0.58782485E+03   -0.41991342E-05    0.44487177E-02
    5   -0.58782485E+03   -0.79513029E-06    0.32029519E-02
    6   -0.58782485E+03   -0.20459356E-06    0.12331696E-02
    7   -0.58782485E+03   -0.99442559E-07    0.83589801E-03
    8   -0.58782485E+03   -0.19316076E-07    0.53647389E-03
    9   -0.58782485E+03   -0.60480261E-08    0.34606633E-03
   10   -0.58782485E+03   -0.20560265E-08    0.17598440E-03
   11   -0.58782485E+03   -0.87447916E-09    0.86573671E-04
   12   -0.58782485E+03   -0.17053026E-09    0.30479018E-04
   13   -0.58782485E+03   -0.42746251E-10    0.11917293E-04
   14   -0.58782485E+03   -0.78443918E-11    0.77721209E-05

Total Energy:                     -587.8248521703 H       -15995.5281 eV
Extrapolated to 0K:               -587.8248521703 H       -15995.5281 eV
Total Mermin free energy:         -587.8248521703 H       -15995.5281 eV
Force related energy:             -587.8248521703 H       -15995.5281 eV

Volume:                              0.331019E+05 au^3   0.490520E+04 A^3
Pressure:                           -0.113202E-04 au    -0.333052E+09 Pa
>> Charges saved for restart in charges.dat

total energy  -5.8782485E+02 H       energy change -6.2359562E-04 H
gradient norm  1.8383263E-02 H/a0    max. gradient  3.9449467E-03 H/a0
step length    1.3714638E-01 a0      max. step      4.8651273E-02 a0

--------------------------------------------------------------------------------

***  Geometry step: 29

 iSCC Total electronic   Diff electronic      SCC error    
    1   -0.58782485E+03    0.00000000E+00    0.17457054E+00
    2   -0.58782538E+03   -0.52479787E-03    0.41493807E-01
    3   -0.58782542E+03   -0.44784040E-04    0.13587330E-01
    4   -0.58782543E+03   -0.38153535E-05    0.37320879E-02
    5   -0.58782543E+03   -0.76778724E-06    0.14288568E-02
    6   -0.58782543E+03   -0.20918424E-06    0.89898674E-03
    7   -0.58782543E+03   -0.53057192E-07    0.61493560E-03
    8   -0.58782543E+03   -0.15856017E-07    0.43215540E-03
    9   -0.58782543E+03   -0.41866315E-08    0.26080430E-03
   10   -0.58782543E+03   -0.17109869E-08    0.14286156E-03
   11   -0.58782543E+03   -0.47782578E-09    0.69737844E-04
   12   -0.58782543E+03   -0.13517365E-09    0.33914764E-04
   13   -0.58782543E+03   -0.43996806E-10    0.27489740E-04
   14   -0.58782543E+03   -0.80717655E-11    0.19314084E-04
   15   -0.58782543E+03   -0.40927262E-11    0.12016472E-04
   16   -0.58782543E+03   -0.20463631E-11    0.53499249E-05

Total Energy:                     -587.8254266201 H       -15995.5437 eV
Extrapolated to 0K:               -587.8254266201 H       -15995.5437 eV
Total Mermin free energy:         -587.8254266201 H       -15995.5437 eV
Force related energy:             -587.8254266201 H       -15995.5437 eV

Volume:                              0.331019E+05 au^3   0.490520E+04 A^3
Pressure:                           -0.113601E-04 au    -0.334225E+09 Pa
>> Charges saved for restart in charges.dat

total energy  -5.8782543E+02 H       energy change -5.7444971E-04 H
gradient norm  1.7029256E-02 H/a0    max. gradient  3.4415548E-03 H/a0
step length    1.1329123E-01 a0      max. step      3.5439245E-02 a0

--------------------------------------------------------------------------------

***  Geometry step: 30

 iSCC Total electronic   Diff electronic      SCC error    
    1   -0.58782543E+03    0.00000000E+00    0.17682629E+00
    2   -0.58782582E+03   -0.39310577E-03    0.37216046E-01
    3   -0.58782586E+03   -0.40325963E-04    0.11867842E-01
    4   -0.58782586E+03   -0.32840127E-05    0.22629954E-02
    5   -0.58782586E+03   -0.54737734E-06    0.15341785E-02
    6   -0.58782586E+03   -0.12980797E-06    0.74391966E-03
    7   -0.58782586E+03   -0.44904027E-07    0.44642408E-03
    8   -0.58782586E+03   -0.12043301E-07    0.27708429E-03
    9   -0.58782586E+03   -0.31220679E-08    0.18343581E-03
   10   -0.58782586E+03   -0.12255441E-08    0.99928871E-04
   11   -0.58782586E+03   -0.51011284E-09    0.53958815E-04
   12   -0.58782586E+03   -0.13858426E-09    0.27533729E-04
   13   -0.58782586E+03   -0.35697667E-10    0.17848301E-04
   14   -0.58782586E+03   -0.70485839E-11    0.10090760E-04
   15   -0.58782586E+03   -0.27284841E-11    0.68045242E-05

Total Energy:                     -587.8258640750 H       -15995.5556 eV
Extrapolated to 0K:               -587.8258640750 H       -15995.5556 eV
Total Mermin free energy:         -587.8258640750 H       -15995.5556 eV
Force related energy:             -587.8258640750 H       -15995.5556 eV

Volume:                              0.331019E+05 au^3   0.490520E+04 A^3
Pressure:                           -0.118262E-04 au    -0.347939E+09 Pa
>> Charges saved for restart in charges.dat

total energy  -5.8782586E+02 H       energy change -4.3745492E-04 H
gradient norm  1.4915038E-02 H/a0    max. gradient  3.0758206E-03 H/a0
step length    1.0486016E-01 a0      max. step      3.7533418E-02 a0

--------------------------------------------------------------------------------

***  Geometry step: 31

 iSCC Total electronic   Diff electronic      SCC error    
    1   -0.58782586E+03    0.00000000E+00    0.12470412E+00
    2   -0.58782619E+03   -0.33059525E-03    0.21835019E-01
    3   -0.58782622E+03   -0.29732090E-04    0.75340167E-02
    4   -0.58782623E+03   -0.21317855E-05    0.23097521E-02
    5   -0.58782623E+03   -0.39795430E-06    0.13408798E-02
    6   -0.58782623E+03   -0.12245653E-06    0.78558684E-03
    7   -0.58782623E+03   -0.22523977E-07    0.41395233E-03
    8   -0.58782623E+03   -0.72099056E-08    0.29804554E-03
    9   -0.58782623E+03   -0.13378667E-08    0.18143007E-03
   10   -0.58782623E+03   -0.55763394E-09    0.78075663E-04
   11   -0.58782623E+03   -0.18087576E-09    0.35415951E-04
   12   -0.58782623E+03   -0.37971404E-10    0.16797269E-04
   13   -0.58782623E+03   -0.10231815E-10    0.97631668E-05

Total Energy:                     -587.8262270864 H       -15995.5655 eV
Extrapolated to 0K:               -587.8262270864 H       -15995.5655 eV
Total Mermin free energy:         -587.8262270864 H       -15995.5655 eV
Force related energy:             -587.8262270864 H       -15995.5655 eV

Volume:                              0.331019E+05 au^3   0.490520E+04 A^3
Pressure:                           -0.119517E-04 au    -0.351630E+09 Pa
>> Charges saved for restart in charges.dat

total energy  -5.8782623E+02 H       energy change -3.6301140E-04 H
gradient norm  1.4338574E-02 H/a0    max. gradient  2.7521048E-03 H/a0
step length    7.6558229E-02 a0      max. step      1.7479586E-02 a0

--------------------------------------------------------------------------------

***  Geometry step: 32

 iSCC Total electronic   Diff electronic      SCC error    
    1   -0.58782623E+03    0.00000000E+00    0.84361567E-01
    2   -0.58782658E+03   -0.35237694E-03    0.24768374E-01
    3   -0.58782660E+03   -0.16473047E-04    0.77902967E-02
    4   -0.58782660E+03   -0.16500173E-05    0.20241415E-02
    5   -0.58782660E+03   -0.28507168E-06    0.12541145E-02
    6   -0.58782660E+03   -0.10223550E-06    0.73290706E-03
    7   -0.58782660E+03   -0.30112687E-07    0.43887640E-03
    8   -0.58782660E+03   -0.73724777E-08    0.29841356E-03
    9   -0.58782660E+03   -0.16958666E-08    0.18048145E-03
   10   -0.58782660E+03   -0.60208549E-09    0.99137556E-04
   11   -0.58782660E+03   -0.22430413E-09    0.66240295E-04
   12   -0.58782660E+03   -0.66506800E-10    0.41212663E-04
   13   -0.58782660E+03   -0.19667823E-10    0.20992676E-04
   14   -0.58782660E+03   -0.10118129E-10    0.78905518E-05

Total Energy:                     -587.8265980138 H       -15995.5756 eV
Extrapolated to 0K:               -587.8265980138 H       -15995.5756 eV
Total Mermin free energy:         -587.8265980138 H       -15995.5756 eV
Force related energy:             -587.8265980138 H       -15995.5756 eV

Volume:                              0.331019E+05 au^3   0.490520E+04 A^3
Pressure:                           -0.121534E-04 au    -0.357565E+09 Pa
>> Charges saved for restart in charges.dat

total energy  -5.8782660E+02 H       energy change -3.7092742E-04 H
gradient norm  1.4943407E-02 H/a0    max. gradient  2.6995062E-03 H/a0
step length    8.4884578E-02 a0      max. step      2.4884994E-02 a0

--------------------------------------------------------------------------------

***  Geometry step: 33

 iSCC Total electronic   Diff electronic      SCC error    
    1   -0.58782660E+03    0.00000000E+00    0.11628628E+00
    2   -0.58782700E+03   -0.40148121E-03    0.27041755E-01
    3   -0.58782702E+03   -0.22414221E-04    0.97968034E-02
    4   -0.58782702E+03   -0.24154160E-05    0.25614277E-02
    5   -0.58782702E+03   -0.44196088E-06    0.18021975E-02
    6   -0.58782702E+03   -0.15067519E-06    0.10636513E-02
    7   -0.58782702E+03   -0.39251518E-07    0.58533069E-03
    8   -0.58782702E+03   -0.98362989E-08    0.39773738E-03
    9   -0.58782702E+03   -0.21573214E-08    0.23736891E-03
   10   -0.58782702E+03   -0.76943252E-09    0.93194161E-04
   11   -0.58782702E+03   -0.29626790E-09    0.64822239E-04
   12   -0.58782702E+03   -0.83218765E-10    0.41663847E-04
   13   -0.58782702E+03   -0.21373125E-10    0.23748030E-04
   14   -0.58782702E+03   -0.80717655E-11    0.97647959E-05

Total Energy:                     -587.8270249697 H       -15995.5872 eV
Extrapolated to 0K:               -587.8270249697 H       -15995.5872 eV
Total Mermin free energy:         -587.8270249697 H       -15995.5872 eV
Force related energy:             -587.8270249697 H       -15995.5872 eV

Volume:                              0.331019E+05 au^3   0.490520E+04 A^3
Pressure:                           -0.120783E-04 au    -0.355356E+09 Pa
>> Charges saved for restart in charges.dat

total energy  -5.8782702E+02 H       energy change -4.2695591E-04 H
gradient norm  1.5350156E-02 H/a0    max. gradient  3.0305479E-03 H/a0
step length    1.0413324E-01 a0      max. step      2.5918544E-02 a0

--------------------------------------------------------------------------------

***  Geometry step: 34

 iSCC Total electronic   Diff electronic      SCC error    
    1   -0.58782702E+03    0.00000000E+00    0.12701342E+00
    2   -0.58782742E+03   -0.39024574E-03    0.35344015E-01
    3   -0.58782744E+03   -0.28510452E-04    0.11287590E-01
    4   -0.58782745E+03   -0.30768090E-05    0.25220762E-02
    5   -0.58782745E+03   -0.43113005E-06    0.18591450E-02
    6   -0.58782745E+03   -0.11952454E-06    0.11049738E-02
    7   -0.58782745E+03   -0.35295443E-07    0.68917839E-03
    8   -0.58782745E+03   -0.80949576E-08    0.46949634E-03
    9   -0.58782745E+03   -0.23969733E-08    0.28809165E-03
   10   -0.58782745E+03   -0.88527941E-09    0.13510008E-03
   11   -0.58782745E+03   -0.40370196E-09    0.88904030E-04
   12   -0.58782745E+03   -0.14154011E-09    0.56040239E-04
   13   -0.58782745E+03   -0.40813575E-10    0.32376322E-04
   14   -0.58782745E+03   -0.16029844E-10    0.11701109E-04
   15   -0.58782745E+03   -0.65938366E-11    0.62529548E-05

Total Energy:                     -587.8274474006 H       -15995.5987 eV
Extrapolated to 0K:               -587.8274474006 H       -15995.5987 eV
Total Mermin free energy:         -587.8274474006 H       -15995.5987 eV
Force related energy:             -587.8274474006 H       -15995.5987 eV

Volume:                              0.331019E+05 au^3   0.490520E+04 A^3
Pressure:                           -0.119708E-04 au    -0.352194E+09 Pa
>> Charges saved for restart in charges.dat

total energy  -5.8782745E+02 H       energy change -4.2243093E-04 H
gradient norm  1.4782432E-02 H/a0    max. gradient  3.4942794E-03 H/a0
step length    1.2548725E-01 a0      max. step      3.4174642E-02 a0

--------------------------------------------------------------------------------

***  Geometry step: 35

 iSCC Total electronic   Diff electronic      SCC error    
    1   -0.58782745E+03    0.00000000E+00    0.13196376E+00
    2   -0.58782779E+03   -0.33864025E-03    0.35339997E-01
    3   -0.58782782E+03   -0.29991066E-04    0.10760882E-01
    4   -0.58782782E+03   -0.29422828E-05    0.24037169E-02
    5   -0.58782782E+03   -0.38147880E-06    0.15532590E-02
    6   -0.58782782E+03   -0.93134076E-07    0.91565961E-03
    7   -0.58782782E+03   -0.30398269E-07    0.58662981E-03
    8   -0.58782782E+03   -0.64460437E-08    0.41264384E-03
    9   -0.58782782E+03   -0.18829951E-08    0.26560913E-03
   10   -0.58782782E+03   -0.72407147E-09    0.11857373E-03
   11   -0.58782782E+03   -0.34958703E-09    0.80301089E-04
   12   -0.58782782E+03   -0.11038992E-09    0.49464243E-04
   13   -0.58782782E+03   -0.35356607E-10    0.29228821E-04
   14   -0.58782782E+03   -0.12050805E-10    0.11307427E-04
   15   -0.58782782E+03   -0.59117156E-11    0.60415797E-05

Total Energy:                     -587.8278194888 H       -15995.6088 eV
Extrapolated to 0K:               -587.8278194888 H       -15995.6088 eV
Total Mermin free energy:         -587.8278194888 H       -15995.6088 eV
Force related energy:             -587.8278194888 H       -15995.6088 eV

Volume:                              0.331019E+05 au^3   0.490520E+04 A^3
Pressure:                           -0.117529E-04 au    -0.345784E+09 Pa
>> Charges saved for restart in charges.dat

total energy  -5.8782782E+02 H       energy change -3.7208818E-04 H
gradient norm  1.3677126E-02 H/a0    max. gradient  3.7192568E-03 H/a0
step length    1.2170755E-01 a0      max. step      3.1318396E-02 a0

--------------------------------------------------------------------------------

***  Geometry step: 36

 iSCC Total electronic   Diff electronic      SCC error    
    1   -0.58782782E+03    0.00000000E+00    0.13193154E+00
    2   -0.58782813E+03   -0.30640839E-03    0.34967717E-01
    3   -0.58782815E+03   -0.23246442E-04    0.95086839E-02
    4   -0.58782815E+03   -0.22896170E-05    0.25488392E-02
    5   -0.58782815E+03   -0.29007458E-06    0.15247009E-02
    6   -0.58782815E+03   -0.76403467E-07    0.77328704E-03
    7   -0.58782815E+03   -0.25976647E-07    0.51224246E-03
    8   -0.58782815E+03   -0.55209739E-08    0.34844118E-03
    9   -0.58782815E+03   -0.19427944E-08    0.22810449E-03
   10   -0.58782815E+03   -0.84992280E-09    0.11958835E-03
   11   -0.58782815E+03   -0.37027803E-09    0.73309946E-04
   12   -0.58782815E+03   -0.11004886E-09    0.40272839E-04
   13   -0.58782815E+03   -0.37289283E-10    0.24272253E-04
   14   -0.58782815E+03   -0.11141310E-10    0.96800370E-05

Total Energy:                     -587.8281518346 H       -15995.6179 eV
Extrapolated to 0K:               -587.8281518346 H       -15995.6179 eV
Total Mermin free energy:         -587.8281518346 H       -15995.6179 eV
Force related energy:             -587.8281518346 H       -15995.6179 eV

Volume:                              0.331019E+05 au^3   0.490520E+04 A^3
Pressure:                           -0.116022E-04 au    -0.341349E+09 Pa
>> Charges saved for restart in charges.dat

total energy  -5.8782815E+02 H       energy change -3.3234576E-04 H
gradient norm  1.3505738E-02 H/a0    max. gradient  3.5765865E-03 H/a0
step length    1.1497276E-01 a0      max. step      2.8640609E-02 a0

--------------------------------------------------------------------------------

***  Geometry step: 37

 iSCC Total electronic   Diff electronic      SCC error    
    1   -0.58782815E+03    0.00000000E+00    0.14496718E+00
    2   -0.58782849E+03   -0.33364560E-03    0.36045287E-01
    3   -0.58782851E+03   -0.22906155E-04    0.89062548E-02
    4   -0.58782851E+03   -0.23429330E-05    0.29515664E-02
    5   -0.58782851E+03   -0.32230469E-06    0.18885254E-02
    6   -0.58782851E+03   -0.93039944E-07    0.10191529E-02
    7   -0.58782851E+03   -0.38428539E-07    0.67075304E-03
    8   -0.58782851E+03   -0.81300868E-08    0.42699066E-03
    9   -0.58782851E+03   -0.29652938E-08    0.22356312E-03
   10   -0.58782851E+03   -0.13042154E-08    0.13207729E-03
   11   -0.58782851E+03   -0.41825388E-09    0.77557861E-04
   12   -0.58782851E+03   -0.12596502E-09    0.41155056E-04
   13   -0.58782851E+03   -0.50931703E-10    0.24871265E-04
   14   -0.58782851E+03   -0.13528734E-10    0.11389266E-04
   15   -0.58782851E+03   -0.92086339E-11    0.59181728E-05

Total Energy:                     -587.8285111960 H       -15995.6276 eV
Extrapolated to 0K:               -587.8285111960 H       -15995.6276 eV
Total Mermin free energy:         -587.8285111960 H       -15995.6276 eV
Force related energy:             -587.8285111960 H       -15995.6276 eV

Volume:                              0.331019E+05 au^3   0.490520E+04 A^3
Pressure:                           -0.114532E-04 au    -0.336963E+09 Pa
>> Charges saved for restart in charges.dat

total energy  -5.8782851E+02 H       energy change -3.5936148E-04 H
gradient norm  1.4482685E-02 H/a0    max. gradient  3.1327430E-03 H/a0
step length    1.1889899E-01 a0      max. step      2.8936558E-02 a0

--------------------------------------------------------------------------------

***  Geometry step: 38

 iSCC Total electronic   Diff electronic      SCC error    
    1   -0.58782851E+03    0.00000000E+00    0.16883424E+00
    2   -0.58782889E+03   -0.37883418E-03    0.40255845E-01
    3   -0.58782892E+03   -0.30896471E-04    0.87057444E-02
    4   -0.58782892E+03   -0.29328214E-05    0.34925299E-02
    5   -0.58782892E+03   -0.40793873E-06    0.23960948E-02
    6   -0.58782892E+03   -0.12601288E-06    0.14118533E-02
    7   -0.58782892E+03   -0.50411359E-07    0.94553643E-03
    8   -0.58782892E+03   -0.11783527E-07    0.59874074E-03
    9   -0.58782892E+03   -0.49888058E-08    0.28894096E-03
   10   -0.58782892E+03   -0.22851054E-08    0.17514987E-03
   11   -0.58782892E+03   -0.65995209E-09    0.90254396E-04
   12   -0.58782892E+03   -0.26625457E-09    0.44840099E-04
   13   -0.58782892E+03   -0.79353413E-10    0.31137891E-04
   14   -0.58782892E+03   -0.20804691E-10    0.13027601E-04
   15   -0.58782892E+03   -0.13869794E-10    0.63134336E-05

Total Energy:                     -587.8289244640 H       -15995.6389 eV
Extrapolated to 0K:               -587.8289244640 H       -15995.6389 eV
Total Mermin free energy:         -587.8289244640 H       -15995.6389 eV
Force related energy:             -587.8289244640 H       -15995.6389 eV

Volume:                              0.331019E+05 au^3   0.490520E+04 A^3
Pressure:                           -0.113494E-04 au    -0.333910E+09 Pa
>> Charges saved for restart in charges.dat

total energy  -5.8782892E+02 H       energy change -4.1326794E-04 H
gradient norm  1.5493728E-02 H/a0    max. gradient  2.3760137E-03 H/a0
step length    1.3563802E-01 a0      max. step      3.4966693E-02 a0

--------------------------------------------------------------------------------

***  Geometry step: 39

 iSCC Total electronic   Diff electronic      SCC error    
    1   -0.58782892E+03    0.00000000E+00    0.17033757E+00
    2   -0.58782931E+03   -0.38634971E-03    0.38331063E-01
    3   -0.58782935E+03   -0.37684806E-04    0.80723667E-02
    4   -0.58782935E+03   -0.29992610E-05    0.38086776E-02
    5   -0.58782935E+03   -0.44288129E-06    0.27984518E-02
    6   -0.58782935E+03   -0.14333568E-06    0.16746316E-02
    7   -0.58782935E+03   -0.50893732E-07    0.11032177E-02
    8   -0.58782935E+03   -0.13852627E-07    0.71112649E-03
    9   -0.58782935E+03   -0.62226491E-08    0.34213762E-03
   10   -0.58782935E+03   -0.30606770E-08    0.18678488E-03
   11   -0.58782935E+03   -0.93950803E-09    0.91058286E-04
   12   -0.58782935E+03   -0.34754066E-09    0.50690590E-04
   13   -0.58782935E+03   -0.90039975E-10    0.32478548E-04
   14   -0.58782935E+03   -0.28194336E-10    0.11611246E-04
   15   -0.58782935E+03   -0.13415047E-10    0.66280332E-05

Total Energy:                     -587.8293521594 H       -15995.6505 eV
Extrapolated to 0K:               -587.8293521594 H       -15995.6505 eV
Total Mermin free energy:         -587.8293521594 H       -15995.6505 eV
Force related energy:             -587.8293521594 H       -15995.6505 eV

Volume:                              0.331019E+05 au^3   0.490520E+04 A^3
Pressure:                           -0.112377E-04 au    -0.330625E+09 Pa
>> Charges saved for restart in charges.dat

total energy  -5.8782935E+02 H       energy change -4.2769544E-04 H
gradient norm  1.5143815E-02 H/a0    max. gradient  2.5674969E-03 H/a0
step length    1.3854495E-01 a0      max. step      3.9020626E-02 a0

--------------------------------------------------------------------------------

***  Geometry step: 40

 iSCC Total electronic   Diff electronic      SCC error    
    1   -0.58782935E+03    0.00000000E+00    0.13764507E+00
    2   -0.58782970E+03   -0.34469851E-03    0.32477503E-01
    3   -0.58782973E+03   -0.29233739E-04    0.68521085E-02
    4   -0.58782973E+03   -0.20083546E-05    0.36189021E-02
    5   -0.58782973E+03   -0.33107176E-06    0.25332424E-02
    6   -0.58782973E+03   -0.11374709E-06    0.15121627E-02
    7   -0.58782973E+03   -0.35160269E-07    0.10036373E-02
    8   -0.58782973E+03   -0.10935764E-07    0.67173015E-03
    9   -0.58782973E+03   -0.50209792E-08    0.33793222E-03
   10   -0.58782973E+03   -0.27201850E-08    0.15844282E-03
   11   -0.58782973E+03   -0.95440100E-09    0.79990527E-04
   12   -0.58782973E+03   -0.28580871E-09    0.46795399E-04
   13   -0.58782973E+03   -0.65483619E-10    0.27076952E-04
   14   -0.58782973E+03   -0.25238478E-10    0.11900703E-04
   15   -0.58782973E+03   -0.93223207E-11    0.62040067E-05

Total Energy:                     -587.8297286000 H       -15995.6608 eV
Extrapolated to 0K:               -587.8297286000 H       -15995.6608 eV
Total Mermin free energy:         -587.8297286000 H       -15995.6608 eV
Force related energy:             -587.8297286000 H       -15995.6608 eV

Volume:                              0.331019E+05 au^3   0.490520E+04 A^3
Pressure:                           -0.111459E-04 au    -0.327923E+09 Pa
>> Charges saved for restart in charges.dat

total energy  -5.8782973E+02 H       energy change -3.7644060E-04 H
gradient norm  1.3728325E-02 H/a0    max. gradient  3.1086401E-03 H/a0
step length    1.1765129E-01 a0      max. step      3.4726075E-02 a0

--------------------------------------------------------------------------------

***  Geometry step: 41

 iSCC Total electronic   Diff electronic      SCC error    
    1   -0.58782973E+03    0.00000000E+00    0.11789645E+00
    2   -0.58783003E+03   -0.30163138E-03    0.27416046E-01
    3   -0.58783005E+03   -0.20053022E-04    0.56414613E-02
    4   -0.58783005E+03   -0.12709129E-05    0.32097894E-02
    5   -0.58783005E+03   -0.24622784E-06    0.21221078E-02
    6   -0.58783005E+03   -0.89170044E-07    0.12392728E-02
    7   -0.58783005E+03   -0.23926304E-07    0.79955077E-03
    8   -0.58783005E+03   -0.78758831E-08    0.51119690E-03
    9   -0.58783005E+03   -0.35989842E-08    0.29336133E-03
   10   -0.58783005E+03   -0.17515731E-08    0.12075538E-03
   11   -0.58783005E+03   -0.81058715E-09    0.67265660E-04
   12   -0.58783005E+03   -0.18587798E-09    0.40785406E-04
   13   -0.58783005E+03   -0.46384230E-10    0.22576413E-04
   14   -0.58783005E+03   -0.14551915E-10    0.91095106E-05

Total Energy:                     -587.8300519289 H       -15995.6696 eV
Extrapolated to 0K:               -587.8300519289 H       -15995.6696 eV
Total Mermin free energy:         -587.8300519289 H       -15995.6696 eV
Force related energy:             -587.8300519289 H       -15995.6696 eV

Volume:                              0.331019E+05 au^3   0.490520E+04 A^3
Pressure:                           -0.110415E-04 au    -0.324853E+09 Pa
>> Charges saved for restart in charges.dat

total energy  -5.8783005E+02 H       energy change -3.2332893E-04 H
gradient norm  1.3076739E-02 H/a0    max. gradient  2.8159571E-03 H/a0
step length    9.9017073E-02 a0      max. step      2.8558251E-02 a0

--------------------------------------------------------------------------------

***  Geometry step: 42

 iSCC Total electronic   Diff electronic      SCC error    
    1   -0.58783005E+03    0.00000000E+00    0.10957396E+00
    2   -0.58783035E+03   -0.29717201E-03    0.27055549E-01
    3   -0.58783037E+03   -0.19889487E-04    0.59427880E-02
    4   -0.58783037E+03   -0.12333887E-05    0.32224340E-02
    5   -0.58783037E+03   -0.25299312E-06    0.20584785E-02
    6   -0.58783037E+03   -0.90222898E-07    0.11566033E-02
    7   -0.58783037E+03   -0.22962809E-07    0.73334876E-03
    8   -0.58783037E+03   -0.77313871E-08    0.44145377E-03
[...]
    9   -0.58792605E+03   -0.10577310E-07    0.46734302E-03
   10   -0.58792605E+03   -0.97784323E-08    0.32696483E-03
   11   -0.58792605E+03   -0.34146979E-08    0.22013942E-03
   12   -0.58792605E+03   -0.13415047E-08    0.16059519E-03
   13   -0.58792605E+03   -0.58730620E-09    0.12241432E-03
   14   -0.58792605E+03   -0.28705927E-09    0.63506276E-04
   15   -0.58792605E+03   -0.28762770E-09    0.36571602E-04
   16   -0.58792605E+03   -0.81968210E-10    0.20182094E-04
   17   -0.58792605E+03   -0.29331204E-10    0.12904720E-04
   18   -0.58792605E+03   -0.10118129E-10    0.84529740E-05

Total Energy:                     -587.9260473363 H       -15998.2817 eV
Extrapolated to 0K:               -587.9260473363 H       -15998.2817 eV
Total Mermin free energy:         -587.9260473363 H       -15998.2817 eV
Force related energy:             -587.9260473363 H       -15998.2817 eV

Volume:                              0.331019E+05 au^3   0.490520E+04 A^3
Pressure:                           -0.108496E-05 au    -0.319207E+08 Pa
>> Charges saved for restart in charges.dat

total energy  -5.8792605E+02 H       energy change -1.9951820E-04 H
gradient norm  1.7611584E-02 H/a0    max. gradient  7.9475972E-03 H/a0
step length    1.3083202E-01 a0      max. step      2.2765221E-02 a0

--------------------------------------------------------------------------------

***  Geometry step: 339

 iSCC Total electronic   Diff electronic      SCC error    
    1   -0.58792605E+03    0.00000000E+00    0.87133103E-01
    2   -0.58792616E+03   -0.11557126E-03    0.18384114E-01
    3   -0.58792617E+03   -0.87311814E-05    0.48154984E-02
    4   -0.58792617E+03   -0.55134080E-06    0.22768497E-02
    5   -0.58792617E+03   -0.11403779E-06    0.16082073E-02
    6   -0.58792617E+03   -0.65599806E-07    0.99574480E-03
    7   -0.58792617E+03   -0.18734795E-07    0.74168141E-03
    8   -0.58792617E+03   -0.56228373E-08    0.55112594E-03
    9   -0.58792617E+03   -0.30456704E-08    0.31001283E-03
   10   -0.58792617E+03   -0.23580924E-08    0.19123549E-03
   11   -0.58792617E+03   -0.10295480E-08    0.12500224E-03
   12   -0.58792617E+03   -0.30377123E-09    0.80906565E-04
   13   -0.58792617E+03   -0.98680175E-10    0.55810080E-04
   14   -0.58792617E+03   -0.33423930E-10    0.19734280E-04
   15   -0.58792617E+03   -0.22396307E-10    0.12505376E-04
   16   -0.58792617E+03   -0.62527761E-11    0.88538285E-05

Total Energy:                     -587.9261724010 H       -15998.2851 eV
Extrapolated to 0K:               -587.9261724010 H       -15998.2851 eV
Total Mermin free energy:         -587.9261724010 H       -15998.2851 eV
Force related energy:             -587.9261724010 H       -15998.2851 eV

Volume:                              0.331019E+05 au^3   0.490520E+04 A^3
Pressure:                           -0.446184E-05 au    -0.131272E+09 Pa
>> Charges saved for restart in charges.dat

total energy  -5.8792617E+02 H       energy change -1.2506468E-04 H
gradient norm  1.0373293E-02 H/a0    max. gradient  1.6002276E-03 H/a0
step length    9.1881246E-02 a0      max. step      1.5451627E-02 a0

--------------------------------------------------------------------------------

***  Geometry step: 340

 iSCC Total electronic   Diff electronic      SCC error    
    1   -0.58792617E+03    0.00000000E+00    0.47971124E-01
    2   -0.58792628E+03   -0.10630836E-03    0.87455618E-02
    3   -0.58792628E+03   -0.22156054E-05    0.23260331E-02
    4   -0.58792628E+03   -0.14847944E-06    0.19099258E-02
    5   -0.58792628E+03   -0.38834287E-07    0.14153464E-02
    6   -0.58792628E+03   -0.22024324E-07    0.88600786E-03
    7   -0.58792628E+03   -0.10563099E-07    0.66162617E-03
    8   -0.58792628E+03   -0.32557637E-08    0.43548245E-03
    9   -0.58792628E+03   -0.26340103E-08    0.17273576E-03
   10   -0.58792628E+03   -0.16983677E-08    0.83351038E-04
   11   -0.58792628E+03   -0.44303761E-09    0.59390165E-04
   12   -0.58792628E+03   -0.10743406E-09    0.43890161E-04
   13   -0.58792628E+03   -0.41382009E-10    0.34338952E-04
   14   -0.58792628E+03   -0.21032065E-10    0.18189363E-04
   15   -0.58792628E+03   -0.26261660E-10    0.16310948E-04
   16   -0.58792628E+03   -0.69348971E-11    0.10625992E-04
   17   -0.58792628E+03   -0.47748472E-11    0.70968841E-05

Total Energy:                     -587.9262811531 H       -15998.2881 eV
Extrapolated to 0K:               -587.9262811531 H       -15998.2881 eV
Total Mermin free energy:         -587.9262811531 H       -15998.2881 eV
Force related energy:             -587.9262811531 H       -15998.2881 eV

Volume:                              0.331019E+05 au^3   0.490520E+04 A^3
Pressure:                           -0.441294E-05 au    -0.129833E+09 Pa
>> Charges saved for restart in charges.dat

total energy  -5.8792628E+02 H       energy change -1.0875211E-04 H
gradient norm  8.5798991E-03 H/a0    max. gradient  2.0690453E-03 H/a0
step length    6.2103715E-02 a0      max. step      7.5583355E-03 a0

--------------------------------------------------------------------------------

***  Geometry step: 341

 iSCC Total electronic   Diff electronic      SCC error    
    1   -0.58792628E+03    0.00000000E+00    0.13787311E+00
    2   -0.58792648E+03   -0.19523590E-03    0.24497016E-01
    3   -0.58792650E+03   -0.19302500E-04    0.73619118E-02
    4   -0.58792650E+03   -0.14209285E-05    0.30872311E-02
    5   -0.58792650E+03   -0.32703315E-06    0.19841828E-02
    6   -0.58792650E+03   -0.17028867E-06    0.13396000E-02
    7   -0.58792650E+03   -0.35307380E-07    0.96215973E-03
    8   -0.58792650E+03   -0.12971213E-07    0.77010304E-03
    9   -0.58792650E+03   -0.58887508E-08    0.52587783E-03
   10   -0.58792650E+03   -0.39615315E-08    0.24241950E-03
   11   -0.58792650E+03   -0.23757138E-08    0.12763634E-03
   12   -0.58792650E+03   -0.62448180E-09    0.96584070E-04
   13   -0.58792650E+03   -0.20361313E-09    0.73129782E-04
   14   -0.58792650E+03   -0.91290531E-10    0.42057134E-04
   15   -0.58792650E+03   -0.64687811E-10    0.31931811E-04
   16   -0.58792650E+03   -0.25920599E-10    0.22968705E-04
   17   -0.58792650E+03   -0.16029844E-10    0.15204343E-04
   18   -0.58792650E+03   -0.80717655E-11    0.83430647E-05

Total Energy:                     -587.9264976713 H       -15998.2940 eV
Extrapolated to 0K:               -587.9264976713 H       -15998.2940 eV
Total Mermin free energy:         -587.9264976713 H       -15998.2940 eV
Force related energy:             -587.9264976713 H       -15998.2940 eV

Volume:                              0.331019E+05 au^3   0.490520E+04 A^3
Pressure:                           -0.434729E-05 au    -0.127902E+09 Pa
>> Charges saved for restart in charges.dat

total energy  -5.8792650E+02 H       energy change -2.1651819E-04 H
gradient norm  7.8052554E-03 H/a0    max. gradient  1.8682855E-03 H/a0
step length    1.6746013E-01 a0      max. step      2.9435872E-02 a0

--------------------------------------------------------------------------------

***  Geometry step: 342

 iSCC Total electronic   Diff electronic      SCC error    
    1   -0.58792650E+03    0.00000000E+00    0.53825571E-01
    2   -0.58792657E+03   -0.68833011E-04    0.10517650E-01
    3   -0.58792657E+03   -0.29613216E-05    0.27486417E-02
    4   -0.58792657E+03   -0.18253206E-06    0.17367216E-02
    5   -0.58792657E+03   -0.44295120E-07    0.12095990E-02
    6   -0.58792657E+03   -0.24887754E-07    0.72985400E-03
    7   -0.58792657E+03   -0.91132506E-08    0.54838084E-03
    8   -0.58792657E+03   -0.27640681E-08    0.37826634E-03
    9   -0.58792657E+03   -0.21989308E-08    0.17540423E-03
   10   -0.58792657E+03   -0.14850912E-08    0.80600031E-04
   11   -0.58792657E+03   -0.51409188E-09    0.53044046E-04
   12   -0.58792657E+03   -0.10447820E-09    0.42846139E-04
   13   -0.58792657E+03   -0.38198777E-10    0.32622379E-04
   14   -0.58792657E+03   -0.20463631E-10    0.19213618E-04
   15   -0.58792657E+03   -0.20918378E-10    0.14529458E-04
   16   -0.58792657E+03   -0.80717655E-11    0.93269313E-05

Total Energy:                     -587.9265697336 H       -15998.2959 eV
Extrapolated to 0K:               -587.9265697336 H       -15998.2959 eV
Total Mermin free energy:         -587.9265697336 H       -15998.2959 eV
Force related energy:             -587.9265697336 H       -15998.2959 eV

Volume:                              0.331019E+05 au^3   0.490520E+04 A^3
Pressure:                           -0.410097E-05 au    -0.120655E+09 Pa
>> Charges saved for restart in charges.dat

total energy  -5.8792657E+02 H       energy change -7.2062319E-05 H
gradient norm  7.9051205E-03 H/a0    max. gradient  1.9909243E-03 H/a0
step length    8.0992928E-02 a0      max. step      1.2331370E-02 a0

--------------------------------------------------------------------------------

***  Geometry step: 343

 iSCC Total electronic   Diff electronic      SCC error    
    1   -0.58792657E+03    0.00000000E+00    0.71171480E-01
    2   -0.58792672E+03   -0.14711387E-03    0.15828058E-01
    3   -0.58792672E+03   -0.74637816E-05    0.37434966E-02
    4   -0.58792672E+03   -0.55541716E-06    0.24224317E-02
    5   -0.58792673E+03   -0.14873649E-06    0.12528451E-02
    6   -0.58792673E+03   -0.67541350E-07    0.79604865E-03
    7   -0.58792673E+03   -0.15216415E-07    0.64896331E-03
    8   -0.58792673E+03   -0.47963340E-08    0.49924896E-03
    9   -0.58792673E+03   -0.25230520E-08    0.34230302E-03
   10   -0.58792673E+03   -0.14948682E-08    0.13772967E-03
   11   -0.58792673E+03   -0.10763870E-08    0.54761473E-04
   12   -0.58792673E+03   -0.20281732E-09    0.32985903E-04
   13   -0.58792673E+03   -0.59230842E-10    0.28577445E-04
   14   -0.58792673E+03   -0.14779289E-10    0.24400281E-04
   15   -0.58792673E+03   -0.11482371E-10    0.21247373E-04
   16   -0.58792673E+03   -0.25011104E-11    0.13402051E-04
   17   -0.58792673E+03   -0.46611603E-11    0.66904001E-05

Total Energy:                     -587.9267251084 H       -15998.3002 eV
Extrapolated to 0K:               -587.9267251084 H       -15998.3002 eV
Total Mermin free energy:         -587.9267251084 H       -15998.3002 eV
Force related energy:             -587.9267251084 H       -15998.3002 eV

Volume:                              0.331019E+05 au^3   0.490520E+04 A^3
Pressure:                           -0.345141E-05 au    -0.101544E+09 Pa
>> Charges saved for restart in charges.dat

total energy  -5.8792673E+02 H       energy change -1.5537476E-04 H
gradient norm  7.3627796E-03 H/a0    max. gradient  1.0883674E-03 H/a0
step length    1.4025809E-01 a0      max. step      2.7159189E-02 a0

--------------------------------------------------------------------------------

***  Geometry step: 344

 iSCC Total electronic   Diff electronic      SCC error    
    1   -0.58792673E+03    0.00000000E+00    0.44119719E-01
    2   -0.58792683E+03   -0.10244044E-03    0.10884075E-01
    3   -0.58792683E+03   -0.28644871E-05    0.24106948E-02
    4   -0.58792683E+03   -0.25828717E-06    0.14171167E-02
    5   -0.58792683E+03   -0.70454462E-07    0.76780085E-03
    6   -0.58792683E+03   -0.28632826E-07    0.51993736E-03
    7   -0.58792683E+03   -0.86131422E-08    0.43248928E-03
    8   -0.58792683E+03   -0.23782150E-08    0.31903398E-03
    9   -0.58792683E+03   -0.18628725E-08    0.26855912E-03
   10   -0.58792683E+03   -0.13002364E-08    0.18145346E-03
   11   -0.58792683E+03   -0.13427552E-08    0.12934906E-03
   12   -0.58792683E+03   -0.47361937E-09    0.87607741E-04
   13   -0.58792683E+03   -0.22521363E-09    0.62836833E-04
   14   -0.58792683E+03   -0.79694473E-10    0.27764539E-04
   15   -0.58792683E+03   -0.61277206E-10    0.17948772E-04
   16   -0.58792683E+03   -0.97770680E-11    0.84664685E-05

Total Energy:                     -587.9268307870 H       -15998.3031 eV
Extrapolated to 0K:               -587.9268307870 H       -15998.3031 eV
Total Mermin free energy:         -587.9268307870 H       -15998.3031 eV
Force related energy:             -587.9268307870 H       -15998.3031 eV

Volume:                              0.331019E+05 au^3   0.490520E+04 A^3
Pressure:                           -0.298680E-05 au    -0.878745E+08 Pa
>> Charges saved for restart in charges.dat

total energy  -5.8792683E+02 H       energy change -1.0567866E-04 H
gradient norm  7.3776306E-03 H/a0    max. gradient  1.4166109E-03 H/a0
step length    8.6127831E-02 a0      max. step      1.5751674E-02 a0

--------------------------------------------------------------------------------

***  Geometry step: 345

 iSCC Total electronic   Diff electronic      SCC error    
    1   -0.58792683E+03    0.00000000E+00    0.41568040E-01
    2   -0.58792693E+03   -0.10191221E-03    0.78994591E-02
    3   -0.58792694E+03   -0.24807161E-05    0.21431262E-02
    4   -0.58792694E+03   -0.23086659E-06    0.11618510E-02
    5   -0.58792694E+03   -0.76386641E-07    0.87818010E-03
    6   -0.58792694E+03   -0.33033757E-07    0.87183446E-03
    7   -0.58792694E+03   -0.11716793E-07    0.78192882E-03
    8   -0.58792694E+03   -0.47278945E-08    0.61786670E-03
    9   -0.58792694E+03   -0.47938329E-08    0.44674286E-03
   10   -0.58792694E+03   -0.39456154E-08    0.25648781E-03
   11   -0.58792694E+03   -0.31111540E-08    0.17780209E-03
   12   -0.58792694E+03   -0.96986241E-09    0.10259483E-03
   13   -0.58792694E+03   -0.35447556E-09    0.64237827E-04
   14   -0.58792694E+03   -0.83900886E-10    0.23198975E-04
   15   -0.58792694E+03   -0.40813575E-10    0.12977400E-04
   16   -0.58792694E+03   -0.67075234E-11    0.72649029E-05

Total Energy:                     -587.9269355500 H       -15998.3059 eV
Extrapolated to 0K:               -587.9269355500 H       -15998.3059 eV
Total Mermin free energy:         -587.9269355500 H       -15998.3059 eV
Force related energy:             -587.9269355500 H       -15998.3059 eV

Volume:                              0.331019E+05 au^3   0.490520E+04 A^3
Pressure:                           -0.317146E-05 au    -0.933074E+08 Pa
>> Charges saved for restart in charges.dat

total energy  -5.8792694E+02 H       energy change -1.0476297E-04 H
gradient norm  6.8280012E-03 H/a0    max. gradient  9.6107798E-04 H/a0
step length    7.4845856E-02 a0      max. step      1.2316375E-02 a0

--------------------------------------------------------------------------------

***  Geometry step: 346

 iSCC Total electronic   Diff electronic      SCC error    
    1   -0.58792694E+03    0.00000000E+00    0.48323644E-01
    2   -0.58792702E+03   -0.80950352E-04    0.10124333E-01
    3   -0.58792702E+03   -0.23491756E-05    0.28557499E-02
    4   -0.58792702E+03   -0.23528105E-06    0.11477499E-02
    5   -0.58792702E+03   -0.62392814E-07    0.84054162E-03
    6   -0.58792702E+03   -0.27969577E-07    0.82670853E-03
    7   -0.58792702E+03   -0.10156327E-07    0.74921757E-03
    8   -0.58792702E+03   -0.36466190E-08    0.61602453E-03
    9   -0.58792702E+03   -0.35641960E-08    0.41322986E-03
   10   -0.58792702E+03   -0.38713779E-08    0.23700229E-03
   11   -0.58792702E+03   -0.23811708E-08    0.14822008E-03
   12   -0.58792702E+03   -0.10180656E-08    0.80791294E-04
   13   -0.58792702E+03   -0.30649971E-09    0.45076384E-04
   14   -0.58792702E+03   -0.81172402E-10    0.25786507E-04
   15   -0.58792702E+03   -0.18985702E-10    0.15267601E-04
   16   -0.58792702E+03   -0.40927262E-11    0.92736264E-05

Total Energy:                     -587.9270192002 H       -15998.3082 eV
Extrapolated to 0K:               -587.9270192002 H       -15998.3082 eV
Total Mermin free energy:         -587.9270192002 H       -15998.3082 eV
Force related energy:             -587.9270192002 H       -15998.3082 eV

Volume:                              0.331019E+05 au^3   0.490520E+04 A^3
Pressure:                           -0.348202E-05 au    -0.102445E+09 Pa
>> Charges saved for restart in charges.dat

total energy  -5.8792702E+02 H       energy change -8.3650222E-05 H
gradient norm  6.7735476E-03 H/a0    max. gradient  9.8077074E-04 H/a0
step length    7.1880262E-02 a0      max. step      8.5634552E-03 a0

--------------------------------------------------------------------------------

***  Geometry step: 347

 iSCC Total electronic   Diff electronic      SCC error    
    1   -0.58792702E+03    0.00000000E+00    0.38946133E-01
    2   -0.58792710E+03   -0.78687262E-04    0.74126309E-02
    3   -0.58792710E+03   -0.21813227E-05    0.22828315E-02
    4   -0.58792710E+03   -0.20205971E-06    0.12797379E-02
    5   -0.58792710E+03   -0.65613449E-07    0.99135731E-03
    6   -0.58792710E+03   -0.32540356E-07    0.74281357E-03
    7   -0.58792710E+03   -0.80754035E-08    0.58264756E-03
    8   -0.58792710E+03   -0.36386609E-08    0.42641701E-03
    9   -0.58792710E+03   -0.30304363E-08    0.29823547E-03
   10   -0.58792710E+03   -0.20788775E-08    0.18783985E-03
   11   -0.58792710E+03   -0.14206307E-08    0.13747787E-03
   12   -0.58792710E+03   -0.51932147E-09    0.10271099E-03
   13   -0.58792710E+03   -0.19747404E-09    0.65220615E-04
   14   -0.58792710E+03   -0.97656994E-10    0.30784123E-04
   15   -0.58792710E+03   -0.43996806E-10    0.16820710E-04
   16   -0.58792710E+03   -0.11596057E-10    0.97897332E-05

Total Energy:                     -587.9271003881 H       -15998.3104 eV
Extrapolated to 0K:               -587.9271003881 H       -15998.3104 eV
Total Mermin free energy:         -587.9271003881 H       -15998.3104 eV
Force related energy:             -587.9271003881 H       -15998.3104 eV

Volume:                              0.331019E+05 au^3   0.490520E+04 A^3
Pressure:                           -0.373552E-05 au    -0.109903E+09 Pa
>> Charges saved for restart in charges.dat

total energy  -5.8792710E+02 H       energy change -8.1187917E-05 H
gradient norm  6.5733173E-03 H/a0    max. gradient  1.0752496E-03 H/a0
step length    6.6930359E-02 a0      max. step      8.6493113E-03 a0

--------------------------------------------------------------------------------

***  Geometry step: 348

 iSCC Total electronic   Diff electronic      SCC error    
    1   -0.58792710E+03    0.00000000E+00    0.57890928E-01
    2   -0.58792718E+03   -0.75012277E-04    0.12674574E-01
    3   -0.58792718E+03   -0.32425323E-05    0.37837179E-02
    4   -0.58792718E+03   -0.25976044E-06    0.15738083E-02
    5   -0.58792718E+03   -0.63164066E-07    0.10491044E-02
    6   -0.58792718E+03   -0.30871661E-07    0.60862968E-03
    7   -0.58792718E+03   -0.75683602E-08    0.46553662E-03
    8   -0.58792718E+03   -0.17290631E-08    0.35232819E-03
    9   -0.58792718E+03   -0.11143584E-08    0.21272622E-03
   10   -0.58792718E+03   -0.89801233E-09    0.15403946E-03
   11   -0.58792718E+03   -0.54569682E-09    0.99741618E-04
   12   -0.58792718E+03   -0.34719960E-09    0.72838611E-04
   13   -0.58792718E+03   -0.13233148E-09    0.54438619E-04
   14   -0.58792718E+03   -0.57411853E-10    0.31288270E-04
   15   -0.58792718E+03   -0.36379788E-10    0.20070581E-04
   16   -0.58792718E+03   -0.10345502E-10    0.85664893E-05

Total Energy:                     -587.9271790092 H       -15998.3125 eV
Extrapolated to 0K:               -587.9271790092 H       -15998.3125 eV
Total Mermin free energy:         -587.9271790092 H       -15998.3125 eV
Force related energy:             -587.9271790092 H       -15998.3125 eV

Volume:                              0.331019E+05 au^3   0.490520E+04 A^3
Pressure:                           -0.404840E-05 au    -0.119108E+09 Pa
>> Charges saved for restart in charges.dat

total energy  -5.8792718E+02 H       energy change -7.8621051E-05 H
gradient norm  6.3999460E-03 H/a0    max. gradient  1.3150851E-03 H/a0
step length    9.8084147E-02 a0      max. step      1.2356268E-02 a0

--------------------------------------------------------------------------------

***  Geometry step: 349

 iSCC Total electronic   Diff electronic      SCC error    
    1   -0.58792718E+03    0.00000000E+00    0.48225368E-01
